
     Program PWSCF v.7.0 starts on 17Jul2022 at 18:16:12 

     This program is part of the open-source Quantum ESPRESSO suite
     for quantum simulation of materials; please cite
         "P. Giannozzi et al., J. Phys.:Condens. Matter 21 395502 (2009);
         "P. Giannozzi et al., J. Phys.:Condens. Matter 29 465901 (2017);
         "P. Giannozzi et al., J. Chem. Phys. 152 154105 (2020);
          URL http://www.quantum-espresso.org", 
     in publications or presentations arising from this work. More details at
     http://www.quantum-espresso.org/quote

     Parallel version (MPI & OpenMP), running on      20 processor cores
     Number of MPI processes:                20
     Threads/MPI process:                     1

     MPI processes distributed on     2 nodes
     21395 MiB available memory on the printing compute node when the environment starts
 
     Reading input from bands.in

     Current dimensions of program PWSCF are:
     Max number of different atomic species (ntypx) = 10
     Max number of k-points (npk) =  40000
     Max angular momentum in pseudopotentials (lmaxx) =  4

     Atomic positions and unit cell read from directory:
     ./temp/si.save/
     Atomic positions from file used, from input discarded
 
 
     K-points division:     npool     =      10
     R & G space division:  proc/nbgrp/npool/nimage =       2
     Subspace diagonalization in iterative solution of the eigenvalue problem:
     a serial algorithm will be used

 
     Parallelization info
     --------------------
     sticks:   dense  smooth     PW     G-vecs:    dense   smooth      PW
     Min         513     513    150                10772    10772    1691
     Max         514     514    151                10775    10775    1692
     Sum        1027    1027    301                21547    21547    3383
 
     Using Slab Decomposition
 


     bravais-lattice index     =            2
     lattice parameter (alat)  =      10.2633  a.u.
     unit-cell volume          =     270.2704 (a.u.)^3
     number of atoms/cell      =            2
     number of atomic types    =            1
     number of electrons       =         8.00
     number of Kohn-Sham states=           18
     kinetic-energy cutoff     =      70.0000  Ry
     charge density cutoff     =     280.0000  Ry
     Exchange-correlation= SLA  PW   NOGX NOGC
                           (   1   4   0   0   0   0   0)

     celldm(1)=  10.263280  celldm(2)=   0.000000  celldm(3)=   0.000000
     celldm(4)=   0.000000  celldm(5)=   0.000000  celldm(6)=   0.000000

     crystal axes: (cart. coord. in units of alat)
               a(1) = (  -0.500000   0.000000   0.500000 )  
               a(2) = (   0.000000   0.500000   0.500000 )  
               a(3) = (  -0.500000   0.500000   0.000000 )  

     reciprocal axes: (cart. coord. in units 2 pi/alat)
               b(1) = ( -1.000000 -1.000000  1.000000 )  
               b(2) = (  1.000000  1.000000  1.000000 )  
               b(3) = ( -1.000000  1.000000 -1.000000 )  


     PseudoPot. # 1 for Si read from file:
     ~/PP/all/Si.dojo.sr.ONCVv0.4.lda.standard.upf
     MD5 check sum: Not computed, couldn't open file
     Pseudo is Norm-conserving + core correction, Zval =  4.0
     Generated using ONCVPSP code by D. R. Hamann
     Using radial grid of 1510 points,  6 beta functions with: 
                l(1) =   0
                l(2) =   0
                l(3) =   1
                l(4) =   1
                l(5) =   2
                l(6) =   2

     atomic species   valence    mass     pseudopotential
        Si             4.00    28.08550     Si( 1.00)

     48 Sym. Ops., with inversion, found (36 have fractional translation)


                                    s                        frac. trans.

      isym =  1     identity                                     

 cryst.   s( 1) = (     1          0          0      )
                  (     0          1          0      )
                  (     0          0          1      )

 cart.    s( 1) = (  1.0000000  0.0000000  0.0000000 )
                  (  0.0000000  1.0000000  0.0000000 )
                  (  0.0000000  0.0000000  1.0000000 )


      isym =  2     180 deg rotation - cart. axis [0,0,1]        

 cryst.   s( 2) = (     0          1         -1      )    f =(  0.0000000 )
                  (     1          0         -1      )       (  0.0000000 )
                  (     0          0         -1      )       (  0.5000000 )

 cart.    s( 2) = ( -1.0000000  0.0000000  0.0000000 )    f =( -0.2500000 )
                  (  0.0000000 -1.0000000  0.0000000 )       (  0.2500000 )
                  (  0.0000000  0.0000000  1.0000000 )       (  0.0000000 )


      isym =  3     180 deg rotation - cart. axis [0,1,0]        

 cryst.   s( 3) = (    -1          0          0      )    f =(  0.5000000 )
                  (    -1          0          1      )       (  0.0000000 )
                  (    -1          1          0      )       (  0.0000000 )

 cart.    s( 3) = ( -1.0000000  0.0000000  0.0000000 )    f =( -0.2500000 )
                  (  0.0000000  1.0000000  0.0000000 )       (  0.0000000 )
                  (  0.0000000  0.0000000 -1.0000000 )       (  0.2500000 )


      isym =  4     180 deg rotation - cart. axis [1,0,0]        

 cryst.   s( 4) = (     0         -1          1      )    f =(  0.0000000 )
                  (     0         -1          0      )       (  0.5000000 )
                  (     1         -1          0      )       (  0.0000000 )

 cart.    s( 4) = (  1.0000000  0.0000000  0.0000000 )    f =(  0.0000000 )
                  (  0.0000000 -1.0000000  0.0000000 )       (  0.2500000 )
                  (  0.0000000  0.0000000 -1.0000000 )       (  0.2500000 )


      isym =  5     180 deg rotation - cart. axis [1,1,0]        

 cryst.   s( 5) = (     0         -1          0      )
                  (    -1          0          0      )
                  (     0          0         -1      )

 cart.    s( 5) = (  0.0000000  1.0000000  0.0000000 )
                  (  1.0000000  0.0000000  0.0000000 )
                  (  0.0000000  0.0000000 -1.0000000 )


      isym =  6     180 deg rotation - cart. axis [1,-1,0]       

 cryst.   s( 6) = (    -1          0          1      )    f =(  0.0000000 )
                  (     0         -1          1      )       (  0.0000000 )
                  (     0          0          1      )       (  0.5000000 )

 cart.    s( 6) = (  0.0000000 -1.0000000  0.0000000 )    f =( -0.2500000 )
                  ( -1.0000000  0.0000000  0.0000000 )       (  0.2500000 )
                  (  0.0000000  0.0000000 -1.0000000 )       (  0.0000000 )


      isym =  7      90 deg rotation - cart. axis [0,0,-1]       

 cryst.   s( 7) = (     0          1          0      )    f =(  0.0000000 )
                  (     0          1         -1      )       (  0.5000000 )
                  (    -1          1          0      )       (  0.0000000 )

 cart.    s( 7) = (  0.0000000  1.0000000  0.0000000 )    f =(  0.0000000 )
                  ( -1.0000000  0.0000000  0.0000000 )       (  0.2500000 )
                  (  0.0000000  0.0000000  1.0000000 )       (  0.2500000 )


      isym =  8      90 deg rotation - cart. axis [0,0,1]        

 cryst.   s( 8) = (     1          0         -1      )    f =(  0.5000000 )
                  (     1          0          0      )       (  0.0000000 )
                  (     1         -1          0      )       (  0.0000000 )

 cart.    s( 8) = (  0.0000000 -1.0000000  0.0000000 )    f =( -0.2500000 )
                  (  1.0000000  0.0000000  0.0000000 )       (  0.0000000 )
                  (  0.0000000  0.0000000  1.0000000 )       (  0.2500000 )


      isym =  9     180 deg rotation - cart. axis [1,0,1]        

 cryst.   s( 9) = (    -1          0          0      )
                  (     0          0         -1      )
                  (     0         -1          0      )

 cart.    s( 9) = (  0.0000000  0.0000000  1.0000000 )
                  (  0.0000000 -1.0000000  0.0000000 )
                  (  1.0000000  0.0000000  0.0000000 )


      isym = 10     180 deg rotation - cart. axis [-1,0,1]       

 cryst.   s(10) = (     1          0          0      )    f =(  0.5000000 )
                  (     1         -1          0      )       (  0.0000000 )
                  (     1          0         -1      )       (  0.0000000 )

 cart.    s(10) = (  0.0000000  0.0000000 -1.0000000 )    f =( -0.2500000 )
                  (  0.0000000 -1.0000000  0.0000000 )       (  0.0000000 )
                  ( -1.0000000  0.0000000  0.0000000 )       (  0.2500000 )


      isym = 11      90 deg rotation - cart. axis [0,1,0]        

 cryst.   s(11) = (     0          1         -1      )    f =(  0.0000000 )
                  (    -1          1          0      )       (  0.5000000 )
                  (     0          1          0      )       (  0.0000000 )

 cart.    s(11) = (  0.0000000  0.0000000  1.0000000 )    f =(  0.0000000 )
                  (  0.0000000  1.0000000  0.0000000 )       (  0.2500000 )
                  ( -1.0000000  0.0000000  0.0000000 )       (  0.2500000 )


      isym = 12      90 deg rotation - cart. axis [0,-1,0]       

 cryst.   s(12) = (     0         -1          1      )    f =(  0.0000000 )
                  (     0          0          1      )       (  0.0000000 )
                  (    -1          0          1      )       (  0.5000000 )

 cart.    s(12) = (  0.0000000  0.0000000 -1.0000000 )    f =( -0.2500000 )
                  (  0.0000000  1.0000000  0.0000000 )       (  0.2500000 )
                  (  1.0000000  0.0000000  0.0000000 )       (  0.0000000 )


      isym = 13     180 deg rotation - cart. axis [0,1,1]        

 cryst.   s(13) = (    -1          1          0      )    f =(  0.0000000 )
                  (     0          1          0      )       (  0.5000000 )
                  (     0          1         -1      )       (  0.0000000 )

 cart.    s(13) = ( -1.0000000  0.0000000  0.0000000 )    f =(  0.0000000 )
                  (  0.0000000  0.0000000  1.0000000 )       (  0.2500000 )
                  (  0.0000000  1.0000000  0.0000000 )       (  0.2500000 )


      isym = 14     180 deg rotation - cart. axis [0,1,-1]       

 cryst.   s(14) = (     0          0         -1      )
                  (     0         -1          0      )
                  (    -1          0          0      )

 cart.    s(14) = ( -1.0000000  0.0000000  0.0000000 )
                  (  0.0000000  0.0000000 -1.0000000 )
                  (  0.0000000 -1.0000000  0.0000000 )


      isym = 15      90 deg rotation - cart. axis [-1,0,0]       

 cryst.   s(15) = (     0          0          1      )    f =(  0.0000000 )
                  (    -1          0          1      )       (  0.0000000 )
                  (     0         -1          1      )       (  0.5000000 )

 cart.    s(15) = (  1.0000000  0.0000000  0.0000000 )    f =( -0.2500000 )
                  (  0.0000000  0.0000000  1.0000000 )       (  0.2500000 )
                  (  0.0000000 -1.0000000  0.0000000 )       (  0.0000000 )


      isym = 16      90 deg rotation - cart. axis [1,0,0]        

 cryst.   s(16) = (     1         -1          0      )    f =(  0.5000000 )
                  (     1          0         -1      )       (  0.0000000 )
                  (     1          0          0      )       (  0.0000000 )

 cart.    s(16) = (  1.0000000  0.0000000  0.0000000 )    f =( -0.2500000 )
                  (  0.0000000  0.0000000 -1.0000000 )       (  0.0000000 )
                  (  0.0000000  1.0000000  0.0000000 )       (  0.2500000 )


      isym = 17     120 deg rotation - cart. axis [-1,-1,-1]     

 cryst.   s(17) = (    -1          0          1      )    f =(  0.5000000 )
                  (    -1          1          0      )       (  0.0000000 )
                  (    -1          0          0      )       (  0.0000000 )

 cart.    s(17) = (  0.0000000  1.0000000  0.0000000 )    f =( -0.2500000 )
                  (  0.0000000  0.0000000  1.0000000 )       (  0.0000000 )
                  (  1.0000000  0.0000000  0.0000000 )       (  0.2500000 )


      isym = 18     120 deg rotation - cart. axis [-1,1,1]       

 cryst.   s(18) = (     0          1          0      )
                  (     0          0          1      )
                  (     1          0          0      )

 cart.    s(18) = (  0.0000000 -1.0000000  0.0000000 )
                  (  0.0000000  0.0000000  1.0000000 )
                  ( -1.0000000  0.0000000  0.0000000 )


      isym = 19     120 deg rotation - cart. axis [1,1,-1]       

 cryst.   s(19) = (     1          0         -1      )    f =(  0.0000000 )
                  (     0          0         -1      )       (  0.0000000 )
                  (     0          1         -1      )       (  0.5000000 )

 cart.    s(19) = (  0.0000000  1.0000000  0.0000000 )    f =( -0.2500000 )
                  (  0.0000000  0.0000000 -1.0000000 )       (  0.2500000 )
                  ( -1.0000000  0.0000000  0.0000000 )       (  0.0000000 )


      isym = 20     120 deg rotation - cart. axis [1,-1,1]       

 cryst.   s(20) = (     0         -1          0      )    f =(  0.0000000 )
                  (     1         -1          0      )       (  0.5000000 )
                  (     0         -1          1      )       (  0.0000000 )

 cart.    s(20) = (  0.0000000 -1.0000000  0.0000000 )    f =(  0.0000000 )
                  (  0.0000000  0.0000000 -1.0000000 )       (  0.2500000 )
                  (  1.0000000  0.0000000  0.0000000 )       (  0.2500000 )


      isym = 21     120 deg rotation - cart. axis [1,1,1]        

 cryst.   s(21) = (     0          0         -1      )    f =(  0.0000000 )
                  (     0          1         -1      )       (  0.0000000 )
                  (     1          0         -1      )       (  0.5000000 )

 cart.    s(21) = (  0.0000000  0.0000000  1.0000000 )    f =( -0.2500000 )
                  (  1.0000000  0.0000000  0.0000000 )       (  0.2500000 )
                  (  0.0000000  1.0000000  0.0000000 )       (  0.0000000 )


      isym = 22     120 deg rotation - cart. axis [-1,1,-1]      

 cryst.   s(22) = (    -1          1          0      )    f =(  0.5000000 )
                  (    -1          0          0      )       (  0.0000000 )
                  (    -1          0          1      )       (  0.0000000 )

 cart.    s(22) = (  0.0000000  0.0000000  1.0000000 )    f =( -0.2500000 )
                  ( -1.0000000  0.0000000  0.0000000 )       (  0.0000000 )
                  (  0.0000000 -1.0000000  0.0000000 )       (  0.2500000 )


      isym = 23     120 deg rotation - cart. axis [1,-1,-1]      

 cryst.   s(23) = (     0          0          1      )
                  (     1          0          0      )
                  (     0          1          0      )

 cart.    s(23) = (  0.0000000  0.0000000 -1.0000000 )
                  ( -1.0000000  0.0000000  0.0000000 )
                  (  0.0000000  1.0000000  0.0000000 )


      isym = 24     120 deg rotation - cart. axis [-1,-1,1]      

 cryst.   s(24) = (     1         -1          0      )    f =(  0.0000000 )
                  (     0         -1          1      )       (  0.5000000 )
                  (     0         -1          0      )       (  0.0000000 )

 cart.    s(24) = (  0.0000000  0.0000000 -1.0000000 )    f =(  0.0000000 )
                  (  1.0000000  0.0000000  0.0000000 )       (  0.2500000 )
                  (  0.0000000 -1.0000000  0.0000000 )       (  0.2500000 )


      isym = 25     inversion                                    

 cryst.   s(25) = (    -1          0          0      )
                  (     0         -1          0      )
                  (     0          0         -1      )

 cart.    s(25) = ( -1.0000000  0.0000000  0.0000000 )
                  (  0.0000000 -1.0000000  0.0000000 )
                  (  0.0000000  0.0000000 -1.0000000 )


      isym = 26     inv. 180 deg rotation - cart. axis [0,0,1]   

 cryst.   s(26) = (     0         -1          1      )    f =(  0.0000000 )
                  (    -1          0          1      )       (  0.0000000 )
                  (     0          0          1      )       (  0.5000000 )

 cart.    s(26) = (  1.0000000  0.0000000  0.0000000 )    f =( -0.2500000 )
                  (  0.0000000  1.0000000  0.0000000 )       (  0.2500000 )
                  (  0.0000000  0.0000000 -1.0000000 )       (  0.0000000 )


      isym = 27     inv. 180 deg rotation - cart. axis [0,1,0]   

 cryst.   s(27) = (     1          0          0      )    f =(  0.5000000 )
                  (     1          0         -1      )       (  0.0000000 )
                  (     1         -1          0      )       (  0.0000000 )

 cart.    s(27) = (  1.0000000  0.0000000  0.0000000 )    f =( -0.2500000 )
                  (  0.0000000 -1.0000000  0.0000000 )       (  0.0000000 )
                  (  0.0000000  0.0000000  1.0000000 )       (  0.2500000 )


      isym = 28     inv. 180 deg rotation - cart. axis [1,0,0]   

 cryst.   s(28) = (     0          1         -1      )    f =(  0.0000000 )
                  (     0          1          0      )       (  0.5000000 )
                  (    -1          1          0      )       (  0.0000000 )

 cart.    s(28) = ( -1.0000000  0.0000000  0.0000000 )    f =(  0.0000000 )
                  (  0.0000000  1.0000000  0.0000000 )       (  0.2500000 )
                  (  0.0000000  0.0000000  1.0000000 )       (  0.2500000 )


      isym = 29     inv. 180 deg rotation - cart. axis [1,1,0]   

 cryst.   s(29) = (     0          1          0      )
                  (     1          0          0      )
                  (     0          0          1      )

 cart.    s(29) = (  0.0000000 -1.0000000  0.0000000 )
                  ( -1.0000000  0.0000000  0.0000000 )
                  (  0.0000000  0.0000000  1.0000000 )


      isym = 30     inv. 180 deg rotation - cart. axis [1,-1,0]  

 cryst.   s(30) = (     1          0         -1      )    f =(  0.0000000 )
                  (     0          1         -1      )       (  0.0000000 )
                  (     0          0         -1      )       (  0.5000000 )

 cart.    s(30) = (  0.0000000  1.0000000  0.0000000 )    f =( -0.2500000 )
                  (  1.0000000  0.0000000  0.0000000 )       (  0.2500000 )
                  (  0.0000000  0.0000000  1.0000000 )       (  0.0000000 )


      isym = 31     inv.  90 deg rotation - cart. axis [0,0,-1]  

 cryst.   s(31) = (     0         -1          0      )    f =(  0.0000000 )
                  (     0         -1          1      )       (  0.5000000 )
                  (     1         -1          0      )       (  0.0000000 )

 cart.    s(31) = (  0.0000000 -1.0000000  0.0000000 )    f =(  0.0000000 )
                  (  1.0000000  0.0000000  0.0000000 )       (  0.2500000 )
                  (  0.0000000  0.0000000 -1.0000000 )       (  0.2500000 )


      isym = 32     inv.  90 deg rotation - cart. axis [0,0,1]   

 cryst.   s(32) = (    -1          0          1      )    f =(  0.5000000 )
                  (    -1          0          0      )       (  0.0000000 )
                  (    -1          1          0      )       (  0.0000000 )

 cart.    s(32) = (  0.0000000  1.0000000  0.0000000 )    f =( -0.2500000 )
                  ( -1.0000000  0.0000000  0.0000000 )       (  0.0000000 )
                  (  0.0000000  0.0000000 -1.0000000 )       (  0.2500000 )


      isym = 33     inv. 180 deg rotation - cart. axis [1,0,1]   

 cryst.   s(33) = (     1          0          0      )
                  (     0          0          1      )
                  (     0          1          0      )

 cart.    s(33) = (  0.0000000  0.0000000 -1.0000000 )
                  (  0.0000000  1.0000000  0.0000000 )
                  ( -1.0000000  0.0000000  0.0000000 )


      isym = 34     inv. 180 deg rotation - cart. axis [-1,0,1]  

 cryst.   s(34) = (    -1          0          0      )    f =(  0.5000000 )
                  (    -1          1          0      )       (  0.0000000 )
                  (    -1          0          1      )       (  0.0000000 )

 cart.    s(34) = (  0.0000000  0.0000000  1.0000000 )    f =( -0.2500000 )
                  (  0.0000000  1.0000000  0.0000000 )       (  0.0000000 )
                  (  1.0000000  0.0000000  0.0000000 )       (  0.2500000 )


      isym = 35     inv.  90 deg rotation - cart. axis [0,1,0]   

 cryst.   s(35) = (     0         -1          1      )    f =(  0.0000000 )
                  (     1         -1          0      )       (  0.5000000 )
                  (     0         -1          0      )       (  0.0000000 )

 cart.    s(35) = (  0.0000000  0.0000000 -1.0000000 )    f =(  0.0000000 )
                  (  0.0000000 -1.0000000  0.0000000 )       (  0.2500000 )
                  (  1.0000000  0.0000000  0.0000000 )       (  0.2500000 )


      isym = 36     inv.  90 deg rotation - cart. axis [0,-1,0]  

 cryst.   s(36) = (     0          1         -1      )    f =(  0.0000000 )
                  (     0          0         -1      )       (  0.0000000 )
                  (     1          0         -1      )       (  0.5000000 )

 cart.    s(36) = (  0.0000000  0.0000000  1.0000000 )    f =( -0.2500000 )
                  (  0.0000000 -1.0000000  0.0000000 )       (  0.2500000 )
                  ( -1.0000000  0.0000000  0.0000000 )       (  0.0000000 )


      isym = 37     inv. 180 deg rotation - cart. axis [0,1,1]   

 cryst.   s(37) = (     1         -1          0      )    f =(  0.0000000 )
                  (     0         -1          0      )       (  0.5000000 )
                  (     0         -1          1      )       (  0.0000000 )

 cart.    s(37) = (  1.0000000  0.0000000  0.0000000 )    f =(  0.0000000 )
                  (  0.0000000  0.0000000 -1.0000000 )       (  0.2500000 )
                  (  0.0000000 -1.0000000  0.0000000 )       (  0.2500000 )


      isym = 38     inv. 180 deg rotation - cart. axis [0,1,-1]  

 cryst.   s(38) = (     0          0          1      )
                  (     0          1          0      )
                  (     1          0          0      )

 cart.    s(38) = (  1.0000000  0.0000000  0.0000000 )
                  (  0.0000000  0.0000000  1.0000000 )
                  (  0.0000000  1.0000000  0.0000000 )


      isym = 39     inv.  90 deg rotation - cart. axis [-1,0,0]  

 cryst.   s(39) = (     0          0         -1      )    f =(  0.0000000 )
                  (     1          0         -1      )       (  0.0000000 )
                  (     0          1         -1      )       (  0.5000000 )

 cart.    s(39) = ( -1.0000000  0.0000000  0.0000000 )    f =( -0.2500000 )
                  (  0.0000000  0.0000000 -1.0000000 )       (  0.2500000 )
                  (  0.0000000  1.0000000  0.0000000 )       (  0.0000000 )


      isym = 40     inv.  90 deg rotation - cart. axis [1,0,0]   

 cryst.   s(40) = (    -1          1          0      )    f =(  0.5000000 )
                  (    -1          0          1      )       (  0.0000000 )
                  (    -1          0          0      )       (  0.0000000 )

 cart.    s(40) = ( -1.0000000  0.0000000  0.0000000 )    f =( -0.2500000 )
                  (  0.0000000  0.0000000  1.0000000 )       (  0.0000000 )
                  (  0.0000000 -1.0000000  0.0000000 )       (  0.2500000 )


      isym = 41     inv. 120 deg rotation - cart. axis [-1,-1,-1]

 cryst.   s(41) = (     1          0         -1      )    f =(  0.5000000 )
                  (     1         -1          0      )       (  0.0000000 )
                  (     1          0          0      )       (  0.0000000 )

 cart.    s(41) = (  0.0000000 -1.0000000  0.0000000 )    f =( -0.2500000 )
                  (  0.0000000  0.0000000 -1.0000000 )       (  0.0000000 )
                  ( -1.0000000  0.0000000  0.0000000 )       (  0.2500000 )


      isym = 42     inv. 120 deg rotation - cart. axis [-1,1,1]  

 cryst.   s(42) = (     0         -1          0      )
                  (     0          0         -1      )
                  (    -1          0          0      )

 cart.    s(42) = (  0.0000000  1.0000000  0.0000000 )
                  (  0.0000000  0.0000000 -1.0000000 )
                  (  1.0000000  0.0000000  0.0000000 )


      isym = 43     inv. 120 deg rotation - cart. axis [1,1,-1]  

 cryst.   s(43) = (    -1          0          1      )    f =(  0.0000000 )
                  (     0          0          1      )       (  0.0000000 )
                  (     0         -1          1      )       (  0.5000000 )

 cart.    s(43) = (  0.0000000 -1.0000000  0.0000000 )    f =( -0.2500000 )
                  (  0.0000000  0.0000000  1.0000000 )       (  0.2500000 )
                  (  1.0000000  0.0000000  0.0000000 )       (  0.0000000 )


      isym = 44     inv. 120 deg rotation - cart. axis [1,-1,1]  

 cryst.   s(44) = (     0          1          0      )    f =(  0.0000000 )
                  (    -1          1          0      )       (  0.5000000 )
                  (     0          1         -1      )       (  0.0000000 )

 cart.    s(44) = (  0.0000000  1.0000000  0.0000000 )    f =(  0.0000000 )
                  (  0.0000000  0.0000000  1.0000000 )       (  0.2500000 )
                  ( -1.0000000  0.0000000  0.0000000 )       (  0.2500000 )


      isym = 45     inv. 120 deg rotation - cart. axis [1,1,1]   

 cryst.   s(45) = (     0          0          1      )    f =(  0.0000000 )
                  (     0         -1          1      )       (  0.0000000 )
                  (    -1          0          1      )       (  0.5000000 )

 cart.    s(45) = (  0.0000000  0.0000000 -1.0000000 )    f =( -0.2500000 )
                  ( -1.0000000  0.0000000  0.0000000 )       (  0.2500000 )
                  (  0.0000000 -1.0000000  0.0000000 )       (  0.0000000 )


      isym = 46     inv. 120 deg rotation - cart. axis [-1,1,-1] 

 cryst.   s(46) = (     1         -1          0      )    f =(  0.5000000 )
                  (     1          0          0      )       (  0.0000000 )
                  (     1          0         -1      )       (  0.0000000 )

 cart.    s(46) = (  0.0000000  0.0000000 -1.0000000 )    f =( -0.2500000 )
                  (  1.0000000  0.0000000  0.0000000 )       (  0.0000000 )
                  (  0.0000000  1.0000000  0.0000000 )       (  0.2500000 )


      isym = 47     inv. 120 deg rotation - cart. axis [1,-1,-1] 

 cryst.   s(47) = (     0          0         -1      )
                  (    -1          0          0      )
                  (     0         -1          0      )

 cart.    s(47) = (  0.0000000  0.0000000  1.0000000 )
                  (  1.0000000  0.0000000  0.0000000 )
                  (  0.0000000 -1.0000000  0.0000000 )


      isym = 48     inv. 120 deg rotation - cart. axis [-1,-1,1] 

 cryst.   s(48) = (    -1          1          0      )    f =(  0.0000000 )
                  (     0          1         -1      )       (  0.5000000 )
                  (     0          1          0      )       (  0.0000000 )

 cart.    s(48) = (  0.0000000  0.0000000  1.0000000 )    f =(  0.0000000 )
                  ( -1.0000000  0.0000000  0.0000000 )       (  0.2500000 )
                  (  0.0000000  1.0000000  0.0000000 )       (  0.2500000 )


     point group O_h (m-3m) 
     there are 10 classes
     the character table:

       E     8C3   3C2   6C4   6C2'  i     8S6   3s_h  6S4   6s_d 
A_1g   1.00  1.00  1.00  1.00  1.00  1.00  1.00  1.00  1.00  1.00
A_2g   1.00  1.00  1.00 -1.00 -1.00  1.00  1.00  1.00 -1.00 -1.00
E_g    2.00 -1.00  2.00  0.00  0.00  2.00 -1.00  2.00  0.00  0.00
T_1g   3.00  0.00 -1.00  1.00 -1.00  3.00  0.00 -1.00  1.00 -1.00
T_2g   3.00  0.00 -1.00 -1.00  1.00  3.00  0.00 -1.00 -1.00  1.00
A_1u   1.00  1.00  1.00  1.00  1.00 -1.00 -1.00 -1.00 -1.00 -1.00
A_2u   1.00  1.00  1.00 -1.00 -1.00 -1.00 -1.00 -1.00  1.00  1.00
E_u    2.00 -1.00  2.00  0.00  0.00 -2.00  1.00 -2.00  0.00  0.00
T_1u   3.00  0.00 -1.00  1.00 -1.00 -3.00  0.00  1.00 -1.00  1.00
T_2u   3.00  0.00 -1.00 -1.00  1.00 -3.00  0.00  1.00  1.00 -1.00

     the symmetry operations in each class and the name of the first element:

     E        1
          identity                                               
     8C3     17   19   20   18   24   21   22   23
          120 deg rotation - cart. axis [-1,-1,-1]               
     3C2      2    4    3
          180 deg rotation - cart. axis [0,0,1]                  
     6C4      7    8   15   16   12   11
           90 deg rotation - cart. axis [0,0,-1]                 
     6C2'     5    6   14   13   10    9
          180 deg rotation - cart. axis [1,1,0]                  
     i       25
          inversion                                              
     8S6     41   43   44   42   48   45   46   47
          inv. 120 deg rotation - cart. axis [-1,-1,-1]          
     3s_h    26   28   27
          inv. 180 deg rotation - cart. axis [0,0,1]             
     6S4     31   32   39   40   36   35
          inv.  90 deg rotation - cart. axis [0,0,-1]            
     6s_d    29   30   38   37   34   33
          inv. 180 deg rotation - cart. axis [1,1,0]             

   Cartesian axes

     site n.     atom                  positions (alat units)
         1           Si  tau(   1) = (  -0.1250000   0.1250000   0.1250000  )
         2           Si  tau(   2) = (   0.1250000  -0.1250000  -0.1250000  )

   Crystallographic axes

     site n.     atom                  positions (cryst. coord.)
         1           Si  tau(   1) = (  0.1250000  0.1250000  0.1250000  )
         2           Si  tau(   2) = ( -0.1250000 -0.1250000 -0.1250000  )

     number of k points=   301
                       cart. coord. in units 2pi/alat
        k(    1) = (  -0.5000000   0.5000000   0.5000000), wk =   0.0066445
        k(    2) = (  -0.4927536   0.4927536   0.4927536), wk =   0.0066445
        k(    3) = (  -0.4855072   0.4855072   0.4855072), wk =   0.0066445
        k(    4) = (  -0.4782609   0.4782609   0.4782609), wk =   0.0066445
        k(    5) = (  -0.4710145   0.4710145   0.4710145), wk =   0.0066445
        k(    6) = (  -0.4637681   0.4637681   0.4637681), wk =   0.0066445
        k(    7) = (  -0.4565217   0.4565217   0.4565217), wk =   0.0066445
        k(    8) = (  -0.4492754   0.4492754   0.4492754), wk =   0.0066445
        k(    9) = (  -0.4420290   0.4420290   0.4420290), wk =   0.0066445
        k(   10) = (  -0.4347826   0.4347826   0.4347826), wk =   0.0066445
        k(   11) = (  -0.4275362   0.4275362   0.4275362), wk =   0.0066445
        k(   12) = (  -0.4202899   0.4202899   0.4202899), wk =   0.0066445
        k(   13) = (  -0.4130435   0.4130435   0.4130435), wk =   0.0066445
        k(   14) = (  -0.4057971   0.4057971   0.4057971), wk =   0.0066445
        k(   15) = (  -0.3985507   0.3985507   0.3985507), wk =   0.0066445
        k(   16) = (  -0.3913043   0.3913043   0.3913043), wk =   0.0066445
        k(   17) = (  -0.3840580   0.3840580   0.3840580), wk =   0.0066445
        k(   18) = (  -0.3768116   0.3768116   0.3768116), wk =   0.0066445
        k(   19) = (  -0.3695652   0.3695652   0.3695652), wk =   0.0066445
        k(   20) = (  -0.3623188   0.3623188   0.3623188), wk =   0.0066445
        k(   21) = (  -0.3550725   0.3550725   0.3550725), wk =   0.0066445
        k(   22) = (  -0.3478261   0.3478261   0.3478261), wk =   0.0066445
        k(   23) = (  -0.3405797   0.3405797   0.3405797), wk =   0.0066445
        k(   24) = (  -0.3333333   0.3333333   0.3333333), wk =   0.0066445
        k(   25) = (  -0.3260870   0.3260870   0.3260870), wk =   0.0066445
        k(   26) = (  -0.3188406   0.3188406   0.3188406), wk =   0.0066445
        k(   27) = (  -0.3115942   0.3115942   0.3115942), wk =   0.0066445
        k(   28) = (  -0.3043478   0.3043478   0.3043478), wk =   0.0066445
        k(   29) = (  -0.2971014   0.2971014   0.2971014), wk =   0.0066445
        k(   30) = (  -0.2898551   0.2898551   0.2898551), wk =   0.0066445
        k(   31) = (  -0.2826087   0.2826087   0.2826087), wk =   0.0066445
        k(   32) = (  -0.2753623   0.2753623   0.2753623), wk =   0.0066445
        k(   33) = (  -0.2681159   0.2681159   0.2681159), wk =   0.0066445
        k(   34) = (  -0.2608696   0.2608696   0.2608696), wk =   0.0066445
        k(   35) = (  -0.2536232   0.2536232   0.2536232), wk =   0.0066445
        k(   36) = (  -0.2463768   0.2463768   0.2463768), wk =   0.0066445
        k(   37) = (  -0.2391304   0.2391304   0.2391304), wk =   0.0066445
        k(   38) = (  -0.2318841   0.2318841   0.2318841), wk =   0.0066445
        k(   39) = (  -0.2246377   0.2246377   0.2246377), wk =   0.0066445
        k(   40) = (  -0.2173913   0.2173913   0.2173913), wk =   0.0066445
        k(   41) = (  -0.2101449   0.2101449   0.2101449), wk =   0.0066445
        k(   42) = (  -0.2028986   0.2028986   0.2028986), wk =   0.0066445
        k(   43) = (  -0.1956522   0.1956522   0.1956522), wk =   0.0066445
        k(   44) = (  -0.1884058   0.1884058   0.1884058), wk =   0.0066445
        k(   45) = (  -0.1811594   0.1811594   0.1811594), wk =   0.0066445
        k(   46) = (  -0.1739130   0.1739130   0.1739130), wk =   0.0066445
        k(   47) = (  -0.1666667   0.1666667   0.1666667), wk =   0.0066445
        k(   48) = (  -0.1594203   0.1594203   0.1594203), wk =   0.0066445
        k(   49) = (  -0.1521739   0.1521739   0.1521739), wk =   0.0066445
        k(   50) = (  -0.1449275   0.1449275   0.1449275), wk =   0.0066445
        k(   51) = (  -0.1376812   0.1376812   0.1376812), wk =   0.0066445
        k(   52) = (  -0.1304348   0.1304348   0.1304348), wk =   0.0066445
        k(   53) = (  -0.1231884   0.1231884   0.1231884), wk =   0.0066445
        k(   54) = (  -0.1159420   0.1159420   0.1159420), wk =   0.0066445
        k(   55) = (  -0.1086957   0.1086957   0.1086957), wk =   0.0066445
        k(   56) = (  -0.1014493   0.1014493   0.1014493), wk =   0.0066445
        k(   57) = (  -0.0942029   0.0942029   0.0942029), wk =   0.0066445
        k(   58) = (  -0.0869565   0.0869565   0.0869565), wk =   0.0066445
        k(   59) = (  -0.0797101   0.0797101   0.0797101), wk =   0.0066445
        k(   60) = (  -0.0724638   0.0724638   0.0724638), wk =   0.0066445
        k(   61) = (  -0.0652174   0.0652174   0.0652174), wk =   0.0066445
        k(   62) = (  -0.0579710   0.0579710   0.0579710), wk =   0.0066445
        k(   63) = (  -0.0507246   0.0507246   0.0507246), wk =   0.0066445
        k(   64) = (  -0.0434783   0.0434783   0.0434783), wk =   0.0066445
        k(   65) = (  -0.0362319   0.0362319   0.0362319), wk =   0.0066445
        k(   66) = (  -0.0289855   0.0289855   0.0289855), wk =   0.0066445
        k(   67) = (  -0.0217391   0.0217391   0.0217391), wk =   0.0066445
        k(   68) = (  -0.0144928   0.0144928   0.0144928), wk =   0.0066445
        k(   69) = (  -0.0072464   0.0072464   0.0072464), wk =   0.0066445
        k(   70) = (   0.0000000   0.0000000   0.0000000), wk =   0.0066445
        k(   71) = (   0.0000000   0.0000000   0.0126582), wk =   0.0066445
        k(   72) = (   0.0000000   0.0000000   0.0253165), wk =   0.0066445
        k(   73) = (   0.0000000   0.0000000   0.0379747), wk =   0.0066445
        k(   74) = (   0.0000000   0.0000000   0.0506329), wk =   0.0066445
        k(   75) = (   0.0000000   0.0000000   0.0632911), wk =   0.0066445
        k(   76) = (   0.0000000   0.0000000   0.0759494), wk =   0.0066445
        k(   77) = (   0.0000000   0.0000000   0.0886076), wk =   0.0066445
        k(   78) = (   0.0000000   0.0000000   0.1012658), wk =   0.0066445
        k(   79) = (   0.0000000   0.0000000   0.1139241), wk =   0.0066445
        k(   80) = (   0.0000000   0.0000000   0.1265823), wk =   0.0066445
        k(   81) = (   0.0000000   0.0000000   0.1392405), wk =   0.0066445
        k(   82) = (   0.0000000   0.0000000   0.1518987), wk =   0.0066445
        k(   83) = (   0.0000000   0.0000000   0.1645570), wk =   0.0066445
        k(   84) = (   0.0000000   0.0000000   0.1772152), wk =   0.0066445
        k(   85) = (   0.0000000   0.0000000   0.1898734), wk =   0.0066445
        k(   86) = (   0.0000000   0.0000000   0.2025316), wk =   0.0066445
        k(   87) = (   0.0000000   0.0000000   0.2151899), wk =   0.0066445
        k(   88) = (   0.0000000   0.0000000   0.2278481), wk =   0.0066445
        k(   89) = (   0.0000000   0.0000000   0.2405063), wk =   0.0066445
        k(   90) = (   0.0000000   0.0000000   0.2531646), wk =   0.0066445
        k(   91) = (   0.0000000   0.0000000   0.2658228), wk =   0.0066445
        k(   92) = (   0.0000000   0.0000000   0.2784810), wk =   0.0066445
        k(   93) = (   0.0000000   0.0000000   0.2911392), wk =   0.0066445
        k(   94) = (   0.0000000   0.0000000   0.3037975), wk =   0.0066445
        k(   95) = (   0.0000000   0.0000000   0.3164557), wk =   0.0066445
        k(   96) = (   0.0000000   0.0000000   0.3291139), wk =   0.0066445
        k(   97) = (   0.0000000   0.0000000   0.3417722), wk =   0.0066445
        k(   98) = (   0.0000000   0.0000000   0.3544304), wk =   0.0066445
        k(   99) = (   0.0000000   0.0000000   0.3670886), wk =   0.0066445
        k(  100) = (   0.0000000   0.0000000   0.3797468), wk =   0.0066445
        k(  101) = (   0.0000000   0.0000000   0.3924051), wk =   0.0066445
        k(  102) = (   0.0000000   0.0000000   0.4050633), wk =   0.0066445
        k(  103) = (   0.0000000   0.0000000   0.4177215), wk =   0.0066445
        k(  104) = (   0.0000000   0.0000000   0.4303797), wk =   0.0066445
        k(  105) = (   0.0000000   0.0000000   0.4430380), wk =   0.0066445
        k(  106) = (   0.0000000   0.0000000   0.4556962), wk =   0.0066445
        k(  107) = (   0.0000000   0.0000000   0.4683544), wk =   0.0066445
        k(  108) = (   0.0000000   0.0000000   0.4810127), wk =   0.0066445
        k(  109) = (   0.0000000   0.0000000   0.4936709), wk =   0.0066445
        k(  110) = (   0.0000000   0.0000000   0.5063291), wk =   0.0066445
        k(  111) = (   0.0000000   0.0000000   0.5189873), wk =   0.0066445
        k(  112) = (   0.0000000   0.0000000   0.5316456), wk =   0.0066445
        k(  113) = (   0.0000000   0.0000000   0.5443038), wk =   0.0066445
        k(  114) = (   0.0000000   0.0000000   0.5569620), wk =   0.0066445
        k(  115) = (   0.0000000   0.0000000   0.5696203), wk =   0.0066445
        k(  116) = (   0.0000000   0.0000000   0.5822785), wk =   0.0066445
        k(  117) = (   0.0000000   0.0000000   0.5949367), wk =   0.0066445
        k(  118) = (   0.0000000   0.0000000   0.6075949), wk =   0.0066445
        k(  119) = (   0.0000000   0.0000000   0.6202532), wk =   0.0066445
        k(  120) = (   0.0000000   0.0000000   0.6329114), wk =   0.0066445
        k(  121) = (   0.0000000   0.0000000   0.6455696), wk =   0.0066445
        k(  122) = (   0.0000000   0.0000000   0.6582278), wk =   0.0066445
        k(  123) = (   0.0000000   0.0000000   0.6708861), wk =   0.0066445
        k(  124) = (   0.0000000   0.0000000   0.6835443), wk =   0.0066445
        k(  125) = (   0.0000000   0.0000000   0.6962025), wk =   0.0066445
        k(  126) = (   0.0000000   0.0000000   0.7088608), wk =   0.0066445
        k(  127) = (   0.0000000   0.0000000   0.7215190), wk =   0.0066445
        k(  128) = (   0.0000000   0.0000000   0.7341772), wk =   0.0066445
        k(  129) = (   0.0000000   0.0000000   0.7468354), wk =   0.0066445
        k(  130) = (   0.0000000   0.0000000   0.7594937), wk =   0.0066445
        k(  131) = (   0.0000000   0.0000000   0.7721519), wk =   0.0066445
        k(  132) = (   0.0000000   0.0000000   0.7848101), wk =   0.0066445
        k(  133) = (   0.0000000   0.0000000   0.7974684), wk =   0.0066445
        k(  134) = (   0.0000000   0.0000000   0.8101266), wk =   0.0066445
        k(  135) = (   0.0000000   0.0000000   0.8227848), wk =   0.0066445
        k(  136) = (   0.0000000   0.0000000   0.8354430), wk =   0.0066445
        k(  137) = (   0.0000000   0.0000000   0.8481013), wk =   0.0066445
        k(  138) = (   0.0000000   0.0000000   0.8607595), wk =   0.0066445
        k(  139) = (   0.0000000   0.0000000   0.8734177), wk =   0.0066445
        k(  140) = (   0.0000000   0.0000000   0.8860759), wk =   0.0066445
        k(  141) = (   0.0000000   0.0000000   0.8987342), wk =   0.0066445
        k(  142) = (   0.0000000   0.0000000   0.9113924), wk =   0.0066445
        k(  143) = (   0.0000000   0.0000000   0.9240506), wk =   0.0066445
        k(  144) = (   0.0000000   0.0000000   0.9367089), wk =   0.0066445
        k(  145) = (   0.0000000   0.0000000   0.9493671), wk =   0.0066445
        k(  146) = (   0.0000000   0.0000000   0.9620253), wk =   0.0066445
        k(  147) = (   0.0000000   0.0000000   0.9746835), wk =   0.0066445
        k(  148) = (   0.0000000   0.0000000   0.9873418), wk =   0.0066445
        k(  149) = (   0.0000000   0.0000000   1.0000000), wk =   0.0066445
        k(  150) = (  -0.0125000   0.0000000   1.0000000), wk =   0.0066445
        k(  151) = (  -0.0250000   0.0000000   1.0000000), wk =   0.0066445
        k(  152) = (  -0.0375000  -0.0000000   1.0000000), wk =   0.0066445
        k(  153) = (  -0.0500000  -0.0000000   1.0000000), wk =   0.0066445
        k(  154) = (  -0.0625000   0.0000000   1.0000000), wk =   0.0066445
        k(  155) = (  -0.0750000   0.0000000   1.0000000), wk =   0.0066445
        k(  156) = (  -0.0875000   0.0000000   1.0000000), wk =   0.0066445
        k(  157) = (  -0.1000000  -0.0000000   1.0000000), wk =   0.0066445
        k(  158) = (  -0.1125000  -0.0000000   1.0000000), wk =   0.0066445
        k(  159) = (  -0.1250000   0.0000000   1.0000000), wk =   0.0066445
        k(  160) = (  -0.1375000   0.0000000   1.0000000), wk =   0.0066445
        k(  161) = (  -0.1500000   0.0000000   1.0000000), wk =   0.0066445
        k(  162) = (  -0.1625000  -0.0000000   1.0000000), wk =   0.0066445
        k(  163) = (  -0.1750000  -0.0000000   1.0000000), wk =   0.0066445
        k(  164) = (  -0.1875000   0.0000000   1.0000000), wk =   0.0066445
        k(  165) = (  -0.2000000   0.0000000   1.0000000), wk =   0.0066445
        k(  166) = (  -0.2125000   0.0000000   1.0000000), wk =   0.0066445
        k(  167) = (  -0.2250000  -0.0000000   1.0000000), wk =   0.0066445
        k(  168) = (  -0.2375000  -0.0000000   1.0000000), wk =   0.0066445
        k(  169) = (  -0.2500000   0.0000000   1.0000000), wk =   0.0066445
        k(  170) = (  -0.2625000   0.0000000   1.0000000), wk =   0.0066445
        k(  171) = (  -0.2750000   0.0000000   1.0000000), wk =   0.0066445
        k(  172) = (  -0.2875000  -0.0000000   1.0000000), wk =   0.0066445
        k(  173) = (  -0.3000000  -0.0000000   1.0000000), wk =   0.0066445
        k(  174) = (  -0.3125000   0.0000000   1.0000000), wk =   0.0066445
        k(  175) = (  -0.3250000   0.0000000   1.0000000), wk =   0.0066445
        k(  176) = (  -0.3375000   0.0000000   1.0000000), wk =   0.0066445
        k(  177) = (  -0.3500000  -0.0000000   1.0000000), wk =   0.0066445
        k(  178) = (  -0.3625000  -0.0000000   1.0000000), wk =   0.0066445
        k(  179) = (  -0.3750000   0.0000000   1.0000000), wk =   0.0066445
        k(  180) = (  -0.3875000   0.0000000   1.0000000), wk =   0.0066445
        k(  181) = (  -0.4000000   0.0000000   1.0000000), wk =   0.0066445
        k(  182) = (  -0.4125000  -0.0000000   1.0000000), wk =   0.0066445
        k(  183) = (  -0.4250000  -0.0000000   1.0000000), wk =   0.0066445
        k(  184) = (  -0.4375000   0.0000000   1.0000000), wk =   0.0066445
        k(  185) = (  -0.4500000   0.0000000   1.0000000), wk =   0.0066445
        k(  186) = (  -0.4625000   0.0000000   1.0000000), wk =   0.0066445
        k(  187) = (  -0.4750000  -0.0000000   1.0000000), wk =   0.0066445
        k(  188) = (  -0.4875000  -0.0000000   1.0000000), wk =   0.0066445
        k(  189) = (  -0.5000000   0.0000000   1.0000000), wk =   0.0066445
        k(  190) = (  -0.5089286   0.0000000   0.9910714), wk =   0.0066445
        k(  191) = (  -0.5178571   0.0000000   0.9821429), wk =   0.0066445
        k(  192) = (  -0.5267857   0.0000000   0.9732143), wk =   0.0066445
        k(  193) = (  -0.5357143   0.0000000   0.9642857), wk =   0.0066445
        k(  194) = (  -0.5446429   0.0000000   0.9553571), wk =   0.0066445
        k(  195) = (  -0.5535714   0.0000000   0.9464286), wk =   0.0066445
        k(  196) = (  -0.5625000   0.0000000   0.9375000), wk =   0.0066445
        k(  197) = (  -0.5714286   0.0000000   0.9285714), wk =   0.0066445
        k(  198) = (  -0.5803571   0.0000000   0.9196429), wk =   0.0066445
        k(  199) = (  -0.5892857   0.0000000   0.9107143), wk =   0.0066445
        k(  200) = (  -0.5982143   0.0000000   0.9017857), wk =   0.0066445
        k(  201) = (  -0.6071429   0.0000000   0.8928571), wk =   0.0066445
        k(  202) = (  -0.6160714   0.0000000   0.8839286), wk =   0.0066445
        k(  203) = (  -0.6250000   0.0000000   0.8750000), wk =   0.0066445
        k(  204) = (  -0.6339286   0.0000000   0.8660714), wk =   0.0066445
        k(  205) = (  -0.6428571   0.0000000   0.8571429), wk =   0.0066445
        k(  206) = (  -0.6517857   0.0000000   0.8482143), wk =   0.0066445
        k(  207) = (  -0.6607143   0.0000000   0.8392857), wk =   0.0066445
        k(  208) = (  -0.6696429   0.0000000   0.8303571), wk =   0.0066445
        k(  209) = (  -0.6785714   0.0000000   0.8214286), wk =   0.0066445
        k(  210) = (  -0.6875000   0.0000000   0.8125000), wk =   0.0066445
        k(  211) = (  -0.6964286   0.0000000   0.8035714), wk =   0.0066445
        k(  212) = (  -0.7053571   0.0000000   0.7946429), wk =   0.0066445
        k(  213) = (  -0.7142857   0.0000000   0.7857143), wk =   0.0066445
        k(  214) = (  -0.7232143   0.0000000   0.7767857), wk =   0.0066445
        k(  215) = (  -0.7321429   0.0000000   0.7678571), wk =   0.0066445
        k(  216) = (  -0.7410714   0.0000000   0.7589286), wk =   0.0066445
        k(  217) = (  -0.7500000   0.0000000   0.7500000), wk =   0.0066445
        k(  218) = (  -0.7410714   0.0000000   0.7410714), wk =   0.0066445
        k(  219) = (  -0.7321429   0.0000000   0.7321429), wk =   0.0066445
        k(  220) = (  -0.7232143   0.0000000   0.7232143), wk =   0.0066445
        k(  221) = (  -0.7142857  -0.0000000   0.7142857), wk =   0.0066445
        k(  222) = (  -0.7053571  -0.0000000   0.7053571), wk =   0.0066445
        k(  223) = (  -0.6964286   0.0000000   0.6964286), wk =   0.0066445
        k(  224) = (  -0.6875000   0.0000000   0.6875000), wk =   0.0066445
        k(  225) = (  -0.6785714   0.0000000   0.6785714), wk =   0.0066445
        k(  226) = (  -0.6696429   0.0000000   0.6696429), wk =   0.0066445
        k(  227) = (  -0.6607143   0.0000000   0.6607143), wk =   0.0066445
        k(  228) = (  -0.6517857  -0.0000000   0.6517857), wk =   0.0066445
        k(  229) = (  -0.6428571  -0.0000000   0.6428571), wk =   0.0066445
        k(  230) = (  -0.6339286   0.0000000   0.6339286), wk =   0.0066445
        k(  231) = (  -0.6250000   0.0000000   0.6250000), wk =   0.0066445
        k(  232) = (  -0.6160714   0.0000000   0.6160714), wk =   0.0066445
        k(  233) = (  -0.6071429   0.0000000   0.6071429), wk =   0.0066445
        k(  234) = (  -0.5982143   0.0000000   0.5982143), wk =   0.0066445
        k(  235) = (  -0.5892857  -0.0000000   0.5892857), wk =   0.0066445
        k(  236) = (  -0.5803571  -0.0000000   0.5803571), wk =   0.0066445
        k(  237) = (  -0.5714286   0.0000000   0.5714286), wk =   0.0066445
        k(  238) = (  -0.5625000   0.0000000   0.5625000), wk =   0.0066445
        k(  239) = (  -0.5535714   0.0000000   0.5535714), wk =   0.0066445
        k(  240) = (  -0.5446429   0.0000000   0.5446429), wk =   0.0066445
        k(  241) = (  -0.5357143   0.0000000   0.5357143), wk =   0.0066445
        k(  242) = (  -0.5267857  -0.0000000   0.5267857), wk =   0.0066445
        k(  243) = (  -0.5178571  -0.0000000   0.5178571), wk =   0.0066445
        k(  244) = (  -0.5089286   0.0000000   0.5089286), wk =   0.0066445
        k(  245) = (  -0.5000000   0.0000000   0.5000000), wk =   0.0066445
        k(  246) = (  -0.4910714   0.0000000   0.4910714), wk =   0.0066445
        k(  247) = (  -0.4821429   0.0000000   0.4821429), wk =   0.0066445
        k(  248) = (  -0.4732143   0.0000000   0.4732143), wk =   0.0066445
        k(  249) = (  -0.4642857  -0.0000000   0.4642857), wk =   0.0066445
        k(  250) = (  -0.4553571  -0.0000000   0.4553571), wk =   0.0066445
        k(  251) = (  -0.4464286   0.0000000   0.4464286), wk =   0.0066445
        k(  252) = (  -0.4375000   0.0000000   0.4375000), wk =   0.0066445
        k(  253) = (  -0.4285714   0.0000000   0.4285714), wk =   0.0066445
        k(  254) = (  -0.4196429   0.0000000   0.4196429), wk =   0.0066445
        k(  255) = (  -0.4107143   0.0000000   0.4107143), wk =   0.0066445
        k(  256) = (  -0.4017857  -0.0000000   0.4017857), wk =   0.0066445
        k(  257) = (  -0.3928571  -0.0000000   0.3928571), wk =   0.0066445
        k(  258) = (  -0.3839286   0.0000000   0.3839286), wk =   0.0066445
        k(  259) = (  -0.3750000   0.0000000   0.3750000), wk =   0.0066445
        k(  260) = (  -0.3660714   0.0000000   0.3660714), wk =   0.0066445
        k(  261) = (  -0.3571429   0.0000000   0.3571429), wk =   0.0066445
        k(  262) = (  -0.3482143   0.0000000   0.3482143), wk =   0.0066445
        k(  263) = (  -0.3392857  -0.0000000   0.3392857), wk =   0.0066445
        k(  264) = (  -0.3303571  -0.0000000   0.3303571), wk =   0.0066445
        k(  265) = (  -0.3214286   0.0000000   0.3214286), wk =   0.0066445
        k(  266) = (  -0.3125000   0.0000000   0.3125000), wk =   0.0066445
        k(  267) = (  -0.3035714   0.0000000   0.3035714), wk =   0.0066445
        k(  268) = (  -0.2946429   0.0000000   0.2946429), wk =   0.0066445
        k(  269) = (  -0.2857143   0.0000000   0.2857143), wk =   0.0066445
        k(  270) = (  -0.2767857  -0.0000000   0.2767857), wk =   0.0066445
        k(  271) = (  -0.2678571  -0.0000000   0.2678571), wk =   0.0066445
        k(  272) = (  -0.2589286   0.0000000   0.2589286), wk =   0.0066445
        k(  273) = (  -0.2500000   0.0000000   0.2500000), wk =   0.0066445
        k(  274) = (  -0.2410714   0.0000000   0.2410714), wk =   0.0066445
        k(  275) = (  -0.2321429   0.0000000   0.2321429), wk =   0.0066445
        k(  276) = (  -0.2232143   0.0000000   0.2232143), wk =   0.0066445
        k(  277) = (  -0.2142857  -0.0000000   0.2142857), wk =   0.0066445
        k(  278) = (  -0.2053571  -0.0000000   0.2053571), wk =   0.0066445
        k(  279) = (  -0.1964286   0.0000000   0.1964286), wk =   0.0066445
        k(  280) = (  -0.1875000   0.0000000   0.1875000), wk =   0.0066445
        k(  281) = (  -0.1785714   0.0000000   0.1785714), wk =   0.0066445
        k(  282) = (  -0.1696429   0.0000000   0.1696429), wk =   0.0066445
        k(  283) = (  -0.1607143   0.0000000   0.1607143), wk =   0.0066445
        k(  284) = (  -0.1517857  -0.0000000   0.1517857), wk =   0.0066445
        k(  285) = (  -0.1428571  -0.0000000   0.1428571), wk =   0.0066445
        k(  286) = (  -0.1339286   0.0000000   0.1339286), wk =   0.0066445
        k(  287) = (  -0.1250000   0.0000000   0.1250000), wk =   0.0066445
        k(  288) = (  -0.1160714   0.0000000   0.1160714), wk =   0.0066445
        k(  289) = (  -0.1071429   0.0000000   0.1071429), wk =   0.0066445
        k(  290) = (  -0.0982143   0.0000000   0.0982143), wk =   0.0066445
        k(  291) = (  -0.0892857  -0.0000000   0.0892857), wk =   0.0066445
        k(  292) = (  -0.0803571  -0.0000000   0.0803571), wk =   0.0066445
        k(  293) = (  -0.0714286   0.0000000   0.0714286), wk =   0.0066445
        k(  294) = (  -0.0625000   0.0000000   0.0625000), wk =   0.0066445
        k(  295) = (  -0.0535714   0.0000000   0.0535714), wk =   0.0066445
        k(  296) = (  -0.0446429   0.0000000   0.0446429), wk =   0.0066445
        k(  297) = (  -0.0357143   0.0000000   0.0357143), wk =   0.0066445
        k(  298) = (  -0.0267857  -0.0000000   0.0267857), wk =   0.0066445
        k(  299) = (  -0.0178571  -0.0000000   0.0178571), wk =   0.0066445
        k(  300) = (  -0.0089286   0.0000000   0.0089286), wk =   0.0066445
        k(  301) = (   0.0000000   0.0000000   0.0000000), wk =   0.0066445

                       cryst. coord.
        k(    1) = (   0.5000000   0.5000000   0.5000000), wk =   0.0066445
        k(    2) = (   0.4927536   0.4927536   0.4927536), wk =   0.0066445
        k(    3) = (   0.4855072   0.4855072   0.4855072), wk =   0.0066445
        k(    4) = (   0.4782609   0.4782609   0.4782609), wk =   0.0066445
        k(    5) = (   0.4710145   0.4710145   0.4710145), wk =   0.0066445
        k(    6) = (   0.4637681   0.4637681   0.4637681), wk =   0.0066445
        k(    7) = (   0.4565217   0.4565217   0.4565217), wk =   0.0066445
        k(    8) = (   0.4492754   0.4492754   0.4492754), wk =   0.0066445
        k(    9) = (   0.4420290   0.4420290   0.4420290), wk =   0.0066445
        k(   10) = (   0.4347826   0.4347826   0.4347826), wk =   0.0066445
        k(   11) = (   0.4275362   0.4275362   0.4275362), wk =   0.0066445
        k(   12) = (   0.4202899   0.4202899   0.4202899), wk =   0.0066445
        k(   13) = (   0.4130435   0.4130435   0.4130435), wk =   0.0066445
        k(   14) = (   0.4057971   0.4057971   0.4057971), wk =   0.0066445
        k(   15) = (   0.3985507   0.3985507   0.3985507), wk =   0.0066445
        k(   16) = (   0.3913043   0.3913043   0.3913043), wk =   0.0066445
        k(   17) = (   0.3840580   0.3840580   0.3840580), wk =   0.0066445
        k(   18) = (   0.3768116   0.3768116   0.3768116), wk =   0.0066445
        k(   19) = (   0.3695652   0.3695652   0.3695652), wk =   0.0066445
        k(   20) = (   0.3623188   0.3623188   0.3623188), wk =   0.0066445
        k(   21) = (   0.3550725   0.3550725   0.3550725), wk =   0.0066445
        k(   22) = (   0.3478261   0.3478261   0.3478261), wk =   0.0066445
        k(   23) = (   0.3405797   0.3405797   0.3405797), wk =   0.0066445
        k(   24) = (   0.3333333   0.3333333   0.3333333), wk =   0.0066445
        k(   25) = (   0.3260870   0.3260870   0.3260870), wk =   0.0066445
        k(   26) = (   0.3188406   0.3188406   0.3188406), wk =   0.0066445
        k(   27) = (   0.3115942   0.3115942   0.3115942), wk =   0.0066445
        k(   28) = (   0.3043478   0.3043478   0.3043478), wk =   0.0066445
        k(   29) = (   0.2971014   0.2971014   0.2971014), wk =   0.0066445
        k(   30) = (   0.2898551   0.2898551   0.2898551), wk =   0.0066445
        k(   31) = (   0.2826087   0.2826087   0.2826087), wk =   0.0066445
        k(   32) = (   0.2753623   0.2753623   0.2753623), wk =   0.0066445
        k(   33) = (   0.2681159   0.2681159   0.2681159), wk =   0.0066445
        k(   34) = (   0.2608696   0.2608696   0.2608696), wk =   0.0066445
        k(   35) = (   0.2536232   0.2536232   0.2536232), wk =   0.0066445
        k(   36) = (   0.2463768   0.2463768   0.2463768), wk =   0.0066445
        k(   37) = (   0.2391304   0.2391304   0.2391304), wk =   0.0066445
        k(   38) = (   0.2318841   0.2318841   0.2318841), wk =   0.0066445
        k(   39) = (   0.2246377   0.2246377   0.2246377), wk =   0.0066445
        k(   40) = (   0.2173913   0.2173913   0.2173913), wk =   0.0066445
        k(   41) = (   0.2101449   0.2101449   0.2101449), wk =   0.0066445
        k(   42) = (   0.2028986   0.2028986   0.2028986), wk =   0.0066445
        k(   43) = (   0.1956522   0.1956522   0.1956522), wk =   0.0066445
        k(   44) = (   0.1884058   0.1884058   0.1884058), wk =   0.0066445
        k(   45) = (   0.1811594   0.1811594   0.1811594), wk =   0.0066445
        k(   46) = (   0.1739130   0.1739130   0.1739130), wk =   0.0066445
        k(   47) = (   0.1666667   0.1666667   0.1666667), wk =   0.0066445
        k(   48) = (   0.1594203   0.1594203   0.1594203), wk =   0.0066445
        k(   49) = (   0.1521739   0.1521739   0.1521739), wk =   0.0066445
        k(   50) = (   0.1449275   0.1449275   0.1449275), wk =   0.0066445
        k(   51) = (   0.1376812   0.1376812   0.1376812), wk =   0.0066445
        k(   52) = (   0.1304348   0.1304348   0.1304348), wk =   0.0066445
        k(   53) = (   0.1231884   0.1231884   0.1231884), wk =   0.0066445
        k(   54) = (   0.1159420   0.1159420   0.1159420), wk =   0.0066445
        k(   55) = (   0.1086957   0.1086957   0.1086957), wk =   0.0066445
        k(   56) = (   0.1014493   0.1014493   0.1014493), wk =   0.0066445
        k(   57) = (   0.0942029   0.0942029   0.0942029), wk =   0.0066445
        k(   58) = (   0.0869565   0.0869565   0.0869565), wk =   0.0066445
        k(   59) = (   0.0797101   0.0797101   0.0797101), wk =   0.0066445
        k(   60) = (   0.0724638   0.0724638   0.0724638), wk =   0.0066445
        k(   61) = (   0.0652174   0.0652174   0.0652174), wk =   0.0066445
        k(   62) = (   0.0579710   0.0579710   0.0579710), wk =   0.0066445
        k(   63) = (   0.0507246   0.0507246   0.0507246), wk =   0.0066445
        k(   64) = (   0.0434783   0.0434783   0.0434783), wk =   0.0066445
        k(   65) = (   0.0362319   0.0362319   0.0362319), wk =   0.0066445
        k(   66) = (   0.0289855   0.0289855   0.0289855), wk =   0.0066445
        k(   67) = (   0.0217391   0.0217391   0.0217391), wk =   0.0066445
        k(   68) = (   0.0144928   0.0144928   0.0144928), wk =   0.0066445
        k(   69) = (   0.0072464   0.0072464   0.0072464), wk =   0.0066445
        k(   70) = (   0.0000000   0.0000000   0.0000000), wk =   0.0066445
        k(   71) = (   0.0063291   0.0063291   0.0000000), wk =   0.0066445
        k(   72) = (   0.0126582   0.0126582   0.0000000), wk =   0.0066445
        k(   73) = (   0.0189873   0.0189873   0.0000000), wk =   0.0066445
        k(   74) = (   0.0253165   0.0253165   0.0000000), wk =   0.0066445
        k(   75) = (   0.0316456   0.0316456   0.0000000), wk =   0.0066445
        k(   76) = (   0.0379747   0.0379747   0.0000000), wk =   0.0066445
        k(   77) = (   0.0443038   0.0443038   0.0000000), wk =   0.0066445
        k(   78) = (   0.0506329   0.0506329   0.0000000), wk =   0.0066445
        k(   79) = (   0.0569620   0.0569620   0.0000000), wk =   0.0066445
        k(   80) = (   0.0632911   0.0632911   0.0000000), wk =   0.0066445
        k(   81) = (   0.0696203   0.0696203   0.0000000), wk =   0.0066445
        k(   82) = (   0.0759494   0.0759494   0.0000000), wk =   0.0066445
        k(   83) = (   0.0822785   0.0822785   0.0000000), wk =   0.0066445
        k(   84) = (   0.0886076   0.0886076   0.0000000), wk =   0.0066445
        k(   85) = (   0.0949367   0.0949367   0.0000000), wk =   0.0066445
        k(   86) = (   0.1012658   0.1012658   0.0000000), wk =   0.0066445
        k(   87) = (   0.1075949   0.1075949   0.0000000), wk =   0.0066445
        k(   88) = (   0.1139241   0.1139241   0.0000000), wk =   0.0066445
        k(   89) = (   0.1202532   0.1202532   0.0000000), wk =   0.0066445
        k(   90) = (   0.1265823   0.1265823   0.0000000), wk =   0.0066445
        k(   91) = (   0.1329114   0.1329114   0.0000000), wk =   0.0066445
        k(   92) = (   0.1392405   0.1392405   0.0000000), wk =   0.0066445
        k(   93) = (   0.1455696   0.1455696   0.0000000), wk =   0.0066445
        k(   94) = (   0.1518987   0.1518987   0.0000000), wk =   0.0066445
        k(   95) = (   0.1582278   0.1582278   0.0000000), wk =   0.0066445
        k(   96) = (   0.1645570   0.1645570   0.0000000), wk =   0.0066445
        k(   97) = (   0.1708861   0.1708861   0.0000000), wk =   0.0066445
        k(   98) = (   0.1772152   0.1772152   0.0000000), wk =   0.0066445
        k(   99) = (   0.1835443   0.1835443   0.0000000), wk =   0.0066445
        k(  100) = (   0.1898734   0.1898734   0.0000000), wk =   0.0066445
        k(  101) = (   0.1962025   0.1962025   0.0000000), wk =   0.0066445
        k(  102) = (   0.2025316   0.2025316   0.0000000), wk =   0.0066445
        k(  103) = (   0.2088608   0.2088608   0.0000000), wk =   0.0066445
        k(  104) = (   0.2151899   0.2151899   0.0000000), wk =   0.0066445
        k(  105) = (   0.2215190   0.2215190   0.0000000), wk =   0.0066445
        k(  106) = (   0.2278481   0.2278481   0.0000000), wk =   0.0066445
        k(  107) = (   0.2341772   0.2341772   0.0000000), wk =   0.0066445
        k(  108) = (   0.2405063   0.2405063   0.0000000), wk =   0.0066445
        k(  109) = (   0.2468354   0.2468354   0.0000000), wk =   0.0066445
        k(  110) = (   0.2531646   0.2531646   0.0000000), wk =   0.0066445
        k(  111) = (   0.2594937   0.2594937   0.0000000), wk =   0.0066445
        k(  112) = (   0.2658228   0.2658228   0.0000000), wk =   0.0066445
        k(  113) = (   0.2721519   0.2721519   0.0000000), wk =   0.0066445
        k(  114) = (   0.2784810   0.2784810   0.0000000), wk =   0.0066445
        k(  115) = (   0.2848101   0.2848101   0.0000000), wk =   0.0066445
        k(  116) = (   0.2911392   0.2911392   0.0000000), wk =   0.0066445
        k(  117) = (   0.2974684   0.2974684   0.0000000), wk =   0.0066445
        k(  118) = (   0.3037975   0.3037975   0.0000000), wk =   0.0066445
        k(  119) = (   0.3101266   0.3101266   0.0000000), wk =   0.0066445
        k(  120) = (   0.3164557   0.3164557   0.0000000), wk =   0.0066445
        k(  121) = (   0.3227848   0.3227848   0.0000000), wk =   0.0066445
        k(  122) = (   0.3291139   0.3291139   0.0000000), wk =   0.0066445
        k(  123) = (   0.3354430   0.3354430   0.0000000), wk =   0.0066445
        k(  124) = (   0.3417722   0.3417722   0.0000000), wk =   0.0066445
        k(  125) = (   0.3481013   0.3481013   0.0000000), wk =   0.0066445
        k(  126) = (   0.3544304   0.3544304   0.0000000), wk =   0.0066445
        k(  127) = (   0.3607595   0.3607595   0.0000000), wk =   0.0066445
        k(  128) = (   0.3670886   0.3670886   0.0000000), wk =   0.0066445
        k(  129) = (   0.3734177   0.3734177   0.0000000), wk =   0.0066445
        k(  130) = (   0.3797468   0.3797468   0.0000000), wk =   0.0066445
        k(  131) = (   0.3860759   0.3860759   0.0000000), wk =   0.0066445
        k(  132) = (   0.3924051   0.3924051   0.0000000), wk =   0.0066445
        k(  133) = (   0.3987342   0.3987342   0.0000000), wk =   0.0066445
        k(  134) = (   0.4050633   0.4050633   0.0000000), wk =   0.0066445
        k(  135) = (   0.4113924   0.4113924   0.0000000), wk =   0.0066445
        k(  136) = (   0.4177215   0.4177215   0.0000000), wk =   0.0066445
        k(  137) = (   0.4240506   0.4240506   0.0000000), wk =   0.0066445
        k(  138) = (   0.4303797   0.4303797   0.0000000), wk =   0.0066445
        k(  139) = (   0.4367089   0.4367089   0.0000000), wk =   0.0066445
        k(  140) = (   0.4430380   0.4430380   0.0000000), wk =   0.0066445
        k(  141) = (   0.4493671   0.4493671   0.0000000), wk =   0.0066445
        k(  142) = (   0.4556962   0.4556962   0.0000000), wk =   0.0066445
        k(  143) = (   0.4620253   0.4620253   0.0000000), wk =   0.0066445
        k(  144) = (   0.4683544   0.4683544   0.0000000), wk =   0.0066445
        k(  145) = (   0.4746835   0.4746835   0.0000000), wk =   0.0066445
        k(  146) = (   0.4810127   0.4810127   0.0000000), wk =   0.0066445
        k(  147) = (   0.4873418   0.4873418   0.0000000), wk =   0.0066445
        k(  148) = (   0.4936709   0.4936709   0.0000000), wk =   0.0066445
        k(  149) = (   0.5000000   0.5000000   0.0000000), wk =   0.0066445
        k(  150) = (   0.5062500   0.5000000   0.0062500), wk =   0.0066445
        k(  151) = (   0.5125000   0.5000000   0.0125000), wk =   0.0066445
        k(  152) = (   0.5187500   0.5000000   0.0187500), wk =   0.0066445
        k(  153) = (   0.5250000   0.5000000   0.0250000), wk =   0.0066445
        k(  154) = (   0.5312500   0.5000000   0.0312500), wk =   0.0066445
        k(  155) = (   0.5375000   0.5000000   0.0375000), wk =   0.0066445
        k(  156) = (   0.5437500   0.5000000   0.0437500), wk =   0.0066445
        k(  157) = (   0.5500000   0.5000000   0.0500000), wk =   0.0066445
        k(  158) = (   0.5562500   0.5000000   0.0562500), wk =   0.0066445
        k(  159) = (   0.5625000   0.5000000   0.0625000), wk =   0.0066445
        k(  160) = (   0.5687500   0.5000000   0.0687500), wk =   0.0066445
        k(  161) = (   0.5750000   0.5000000   0.0750000), wk =   0.0066445
        k(  162) = (   0.5812500   0.5000000   0.0812500), wk =   0.0066445
        k(  163) = (   0.5875000   0.5000000   0.0875000), wk =   0.0066445
        k(  164) = (   0.5937500   0.5000000   0.0937500), wk =   0.0066445
        k(  165) = (   0.6000000   0.5000000   0.1000000), wk =   0.0066445
        k(  166) = (   0.6062500   0.5000000   0.1062500), wk =   0.0066445
        k(  167) = (   0.6125000   0.5000000   0.1125000), wk =   0.0066445
        k(  168) = (   0.6187500   0.5000000   0.1187500), wk =   0.0066445
        k(  169) = (   0.6250000   0.5000000   0.1250000), wk =   0.0066445
        k(  170) = (   0.6312500   0.5000000   0.1312500), wk =   0.0066445
        k(  171) = (   0.6375000   0.5000000   0.1375000), wk =   0.0066445
        k(  172) = (   0.6437500   0.5000000   0.1437500), wk =   0.0066445
        k(  173) = (   0.6500000   0.5000000   0.1500000), wk =   0.0066445
        k(  174) = (   0.6562500   0.5000000   0.1562500), wk =   0.0066445
        k(  175) = (   0.6625000   0.5000000   0.1625000), wk =   0.0066445
        k(  176) = (   0.6687500   0.5000000   0.1687500), wk =   0.0066445
        k(  177) = (   0.6750000   0.5000000   0.1750000), wk =   0.0066445
        k(  178) = (   0.6812500   0.5000000   0.1812500), wk =   0.0066445
        k(  179) = (   0.6875000   0.5000000   0.1875000), wk =   0.0066445
        k(  180) = (   0.6937500   0.5000000   0.1937500), wk =   0.0066445
        k(  181) = (   0.7000000   0.5000000   0.2000000), wk =   0.0066445
        k(  182) = (   0.7062500   0.5000000   0.2062500), wk =   0.0066445
        k(  183) = (   0.7125000   0.5000000   0.2125000), wk =   0.0066445
        k(  184) = (   0.7187500   0.5000000   0.2187500), wk =   0.0066445
        k(  185) = (   0.7250000   0.5000000   0.2250000), wk =   0.0066445
        k(  186) = (   0.7312500   0.5000000   0.2312500), wk =   0.0066445
        k(  187) = (   0.7375000   0.5000000   0.2375000), wk =   0.0066445
        k(  188) = (   0.7437500   0.5000000   0.2437500), wk =   0.0066445
        k(  189) = (   0.7500000   0.5000000   0.2500000), wk =   0.0066445
        k(  190) = (   0.7500000   0.4955357   0.2544643), wk =   0.0066445
        k(  191) = (   0.7500000   0.4910714   0.2589286), wk =   0.0066445
        k(  192) = (   0.7500000   0.4866071   0.2633929), wk =   0.0066445
        k(  193) = (   0.7500000   0.4821429   0.2678571), wk =   0.0066445
        k(  194) = (   0.7500000   0.4776786   0.2723214), wk =   0.0066445
        k(  195) = (   0.7500000   0.4732143   0.2767857), wk =   0.0066445
        k(  196) = (   0.7500000   0.4687500   0.2812500), wk =   0.0066445
        k(  197) = (   0.7500000   0.4642857   0.2857143), wk =   0.0066445
        k(  198) = (   0.7500000   0.4598214   0.2901786), wk =   0.0066445
        k(  199) = (   0.7500000   0.4553571   0.2946429), wk =   0.0066445
        k(  200) = (   0.7500000   0.4508929   0.2991071), wk =   0.0066445
        k(  201) = (   0.7500000   0.4464286   0.3035714), wk =   0.0066445
        k(  202) = (   0.7500000   0.4419643   0.3080357), wk =   0.0066445
        k(  203) = (   0.7500000   0.4375000   0.3125000), wk =   0.0066445
        k(  204) = (   0.7500000   0.4330357   0.3169643), wk =   0.0066445
        k(  205) = (   0.7500000   0.4285714   0.3214286), wk =   0.0066445
        k(  206) = (   0.7500000   0.4241071   0.3258929), wk =   0.0066445
        k(  207) = (   0.7500000   0.4196429   0.3303571), wk =   0.0066445
        k(  208) = (   0.7500000   0.4151786   0.3348214), wk =   0.0066445
        k(  209) = (   0.7500000   0.4107143   0.3392857), wk =   0.0066445
        k(  210) = (   0.7500000   0.4062500   0.3437500), wk =   0.0066445
        k(  211) = (   0.7500000   0.4017857   0.3482143), wk =   0.0066445
        k(  212) = (   0.7500000   0.3973214   0.3526786), wk =   0.0066445
        k(  213) = (   0.7500000   0.3928571   0.3571429), wk =   0.0066445
        k(  214) = (   0.7500000   0.3883929   0.3616071), wk =   0.0066445
        k(  215) = (   0.7500000   0.3839286   0.3660714), wk =   0.0066445
        k(  216) = (   0.7500000   0.3794643   0.3705357), wk =   0.0066445
        k(  217) = (   0.7500000   0.3750000   0.3750000), wk =   0.0066445
        k(  218) = (   0.7410714   0.3705357   0.3705357), wk =   0.0066445
        k(  219) = (   0.7321429   0.3660714   0.3660714), wk =   0.0066445
        k(  220) = (   0.7232143   0.3616071   0.3616071), wk =   0.0066445
        k(  221) = (   0.7142857   0.3571429   0.3571429), wk =   0.0066445
        k(  222) = (   0.7053571   0.3526786   0.3526786), wk =   0.0066445
        k(  223) = (   0.6964286   0.3482143   0.3482143), wk =   0.0066445
        k(  224) = (   0.6875000   0.3437500   0.3437500), wk =   0.0066445
        k(  225) = (   0.6785714   0.3392857   0.3392857), wk =   0.0066445
        k(  226) = (   0.6696429   0.3348214   0.3348214), wk =   0.0066445
        k(  227) = (   0.6607143   0.3303571   0.3303571), wk =   0.0066445
        k(  228) = (   0.6517857   0.3258929   0.3258929), wk =   0.0066445
        k(  229) = (   0.6428571   0.3214286   0.3214286), wk =   0.0066445
        k(  230) = (   0.6339286   0.3169643   0.3169643), wk =   0.0066445
        k(  231) = (   0.6250000   0.3125000   0.3125000), wk =   0.0066445
        k(  232) = (   0.6160714   0.3080357   0.3080357), wk =   0.0066445
        k(  233) = (   0.6071429   0.3035714   0.3035714), wk =   0.0066445
        k(  234) = (   0.5982143   0.2991071   0.2991071), wk =   0.0066445
        k(  235) = (   0.5892857   0.2946429   0.2946429), wk =   0.0066445
        k(  236) = (   0.5803571   0.2901786   0.2901786), wk =   0.0066445
        k(  237) = (   0.5714286   0.2857143   0.2857143), wk =   0.0066445
        k(  238) = (   0.5625000   0.2812500   0.2812500), wk =   0.0066445
        k(  239) = (   0.5535714   0.2767857   0.2767857), wk =   0.0066445
        k(  240) = (   0.5446429   0.2723214   0.2723214), wk =   0.0066445
        k(  241) = (   0.5357143   0.2678571   0.2678571), wk =   0.0066445
        k(  242) = (   0.5267857   0.2633929   0.2633929), wk =   0.0066445
        k(  243) = (   0.5178571   0.2589286   0.2589286), wk =   0.0066445
        k(  244) = (   0.5089286   0.2544643   0.2544643), wk =   0.0066445
        k(  245) = (   0.5000000   0.2500000   0.2500000), wk =   0.0066445
        k(  246) = (   0.4910714   0.2455357   0.2455357), wk =   0.0066445
        k(  247) = (   0.4821429   0.2410714   0.2410714), wk =   0.0066445
        k(  248) = (   0.4732143   0.2366071   0.2366071), wk =   0.0066445
        k(  249) = (   0.4642857   0.2321429   0.2321429), wk =   0.0066445
        k(  250) = (   0.4553571   0.2276786   0.2276786), wk =   0.0066445
        k(  251) = (   0.4464286   0.2232143   0.2232143), wk =   0.0066445
        k(  252) = (   0.4375000   0.2187500   0.2187500), wk =   0.0066445
        k(  253) = (   0.4285714   0.2142857   0.2142857), wk =   0.0066445
        k(  254) = (   0.4196429   0.2098214   0.2098214), wk =   0.0066445
        k(  255) = (   0.4107143   0.2053571   0.2053571), wk =   0.0066445
        k(  256) = (   0.4017857   0.2008929   0.2008929), wk =   0.0066445
        k(  257) = (   0.3928571   0.1964286   0.1964286), wk =   0.0066445
        k(  258) = (   0.3839286   0.1919643   0.1919643), wk =   0.0066445
        k(  259) = (   0.3750000   0.1875000   0.1875000), wk =   0.0066445
        k(  260) = (   0.3660714   0.1830357   0.1830357), wk =   0.0066445
        k(  261) = (   0.3571429   0.1785714   0.1785714), wk =   0.0066445
        k(  262) = (   0.3482143   0.1741071   0.1741071), wk =   0.0066445
        k(  263) = (   0.3392857   0.1696429   0.1696429), wk =   0.0066445
        k(  264) = (   0.3303571   0.1651786   0.1651786), wk =   0.0066445
        k(  265) = (   0.3214286   0.1607143   0.1607143), wk =   0.0066445
        k(  266) = (   0.3125000   0.1562500   0.1562500), wk =   0.0066445
        k(  267) = (   0.3035714   0.1517857   0.1517857), wk =   0.0066445
        k(  268) = (   0.2946429   0.1473214   0.1473214), wk =   0.0066445
        k(  269) = (   0.2857143   0.1428571   0.1428571), wk =   0.0066445
        k(  270) = (   0.2767857   0.1383929   0.1383929), wk =   0.0066445
        k(  271) = (   0.2678571   0.1339286   0.1339286), wk =   0.0066445
        k(  272) = (   0.2589286   0.1294643   0.1294643), wk =   0.0066445
        k(  273) = (   0.2500000   0.1250000   0.1250000), wk =   0.0066445
        k(  274) = (   0.2410714   0.1205357   0.1205357), wk =   0.0066445
        k(  275) = (   0.2321429   0.1160714   0.1160714), wk =   0.0066445
        k(  276) = (   0.2232143   0.1116071   0.1116071), wk =   0.0066445
        k(  277) = (   0.2142857   0.1071429   0.1071429), wk =   0.0066445
        k(  278) = (   0.2053571   0.1026786   0.1026786), wk =   0.0066445
        k(  279) = (   0.1964286   0.0982143   0.0982143), wk =   0.0066445
        k(  280) = (   0.1875000   0.0937500   0.0937500), wk =   0.0066445
        k(  281) = (   0.1785714   0.0892857   0.0892857), wk =   0.0066445
        k(  282) = (   0.1696429   0.0848214   0.0848214), wk =   0.0066445
        k(  283) = (   0.1607143   0.0803571   0.0803571), wk =   0.0066445
        k(  284) = (   0.1517857   0.0758929   0.0758929), wk =   0.0066445
        k(  285) = (   0.1428571   0.0714286   0.0714286), wk =   0.0066445
        k(  286) = (   0.1339286   0.0669643   0.0669643), wk =   0.0066445
        k(  287) = (   0.1250000   0.0625000   0.0625000), wk =   0.0066445
        k(  288) = (   0.1160714   0.0580357   0.0580357), wk =   0.0066445
        k(  289) = (   0.1071429   0.0535714   0.0535714), wk =   0.0066445
        k(  290) = (   0.0982143   0.0491071   0.0491071), wk =   0.0066445
        k(  291) = (   0.0892857   0.0446429   0.0446429), wk =   0.0066445
        k(  292) = (   0.0803571   0.0401786   0.0401786), wk =   0.0066445
        k(  293) = (   0.0714286   0.0357143   0.0357143), wk =   0.0066445
        k(  294) = (   0.0625000   0.0312500   0.0312500), wk =   0.0066445
        k(  295) = (   0.0535714   0.0267857   0.0267857), wk =   0.0066445
        k(  296) = (   0.0446429   0.0223214   0.0223214), wk =   0.0066445
        k(  297) = (   0.0357143   0.0178571   0.0178571), wk =   0.0066445
        k(  298) = (   0.0267857   0.0133929   0.0133929), wk =   0.0066445
        k(  299) = (   0.0178571   0.0089286   0.0089286), wk =   0.0066445
        k(  300) = (   0.0089286   0.0044643   0.0044643), wk =   0.0066445
        k(  301) = (   0.0000000   0.0000000   0.0000000), wk =   0.0066445

     Dense  grid:    21547 G-vectors     FFT dimensions: (  40,  40,  40)

     Dynamical RAM for                 wfc:       0.37 MB

     Dynamical RAM for     wfc (w. buffer):      11.74 MB

     Dynamical RAM for           str. fact:       0.16 MB

     Dynamical RAM for           local pot:       0.00 MB

     Dynamical RAM for          nlocal pot:       0.73 MB

     Dynamical RAM for                qrad:       1.34 MB

     Dynamical RAM for          rho,v,vnew:       1.23 MB

     Dynamical RAM for           G-vectors:       0.70 MB

     Dynamical RAM for          h,s,v(r/c):       0.06 MB

     Dynamical RAM for          <psi|beta>:       0.01 MB

     Dynamical RAM for                 psi:       0.73 MB

     Dynamical RAM for                hpsi:       0.73 MB

     Dynamical RAM for      wfcinit/wfcrot:       0.74 MB

     Estimated static dynamical RAM per process >      17.46 MB

     Estimated max dynamical RAM per process >      18.99 MB

     Estimated total dynamical RAM >     379.90 MB

     The potential is recalculated from file :
     ./temp/si.save/charge-density

     Starting wfcs are    8 randomized atomic wfcs +   10 random wfcs

     Band Structure Calculation
     Davidson diagonalization with overlap

     Computing kpt #:     1  of    31 on this pool
     total cpu time spent up to now is        1.4 secs

     Computing kpt #:     2  of    31 on this pool
     total cpu time spent up to now is        2.3 secs

     Computing kpt #:     3  of    31 on this pool
     total cpu time spent up to now is        3.1 secs

     Computing kpt #:     4  of    31 on this pool
     total cpu time spent up to now is        4.0 secs

     Computing kpt #:     5  of    31 on this pool
     total cpu time spent up to now is        4.9 secs

     Computing kpt #:     6  of    31 on this pool
     total cpu time spent up to now is        5.8 secs

     Computing kpt #:     7  of    31 on this pool
     total cpu time spent up to now is        6.7 secs

     Computing kpt #:     8  of    31 on this pool
     total cpu time spent up to now is        7.6 secs

     Computing kpt #:     9  of    31 on this pool
     total cpu time spent up to now is        8.4 secs

     Computing kpt #:    10  of    31 on this pool
     total cpu time spent up to now is        9.2 secs

     Computing kpt #:    11  of    31 on this pool
     total cpu time spent up to now is       10.1 secs

     Computing kpt #:    12  of    31 on this pool
     total cpu time spent up to now is       11.0 secs

     Computing kpt #:    13  of    31 on this pool
     total cpu time spent up to now is       11.9 secs

     Computing kpt #:    14  of    31 on this pool
     total cpu time spent up to now is       12.8 secs

     Computing kpt #:    15  of    31 on this pool
     total cpu time spent up to now is       13.8 secs

     Computing kpt #:    16  of    31 on this pool
     total cpu time spent up to now is       14.7 secs

     Computing kpt #:    17  of    31 on this pool
     total cpu time spent up to now is       15.6 secs

     Computing kpt #:    18  of    31 on this pool
     total cpu time spent up to now is       16.4 secs

     Computing kpt #:    19  of    31 on this pool
     total cpu time spent up to now is       17.2 secs

     Computing kpt #:    20  of    31 on this pool
     total cpu time spent up to now is       18.1 secs

     Computing kpt #:    21  of    31 on this pool
     total cpu time spent up to now is       18.9 secs

     Computing kpt #:    22  of    31 on this pool
     total cpu time spent up to now is       19.8 secs

     Computing kpt #:    23  of    31 on this pool
     total cpu time spent up to now is       20.7 secs

     Computing kpt #:    24  of    31 on this pool
     total cpu time spent up to now is       21.5 secs

     Computing kpt #:    25  of    31 on this pool
     total cpu time spent up to now is       22.3 secs

     Computing kpt #:    26  of    31 on this pool
     total cpu time spent up to now is       23.1 secs

     Computing kpt #:    27  of    31 on this pool
     total cpu time spent up to now is       23.9 secs

     Computing kpt #:    28  of    31 on this pool
[...]
    24.2147  25.7098

          k =-0.6607 0.0000 0.6607 (  2662 PWs)   bands (ev):

    -2.7024  -0.7083   1.6016   3.9484   7.5444  11.8594  12.3891  12.9666
    13.2745  13.6286  20.1835  20.7345  21.5473  21.7360  22.6225  23.3229
    24.3184  25.7011

          k =-0.6518-0.0000 0.6518 (  2658 PWs)   bands (ev):

    -2.7628  -0.6511   1.6127   3.9865   7.5888  11.9961  12.2898  12.9229
    13.1940  13.5472  20.0885  20.6343  21.5910  21.8167  22.7378  23.1250
    24.3989  25.7009

          k =-0.6429-0.0000 0.6429 (  2658 PWs)   bands (ev):

    -2.8244  -0.5924   1.6275   4.0252   7.6340  12.0964  12.1915  12.9175
    13.1147  13.4676  19.9921  20.5354  21.6243  21.8965  22.8522  22.9402
    24.4501  25.7149

          k =-0.6339 0.0000 0.6339 (  2660 PWs)   bands (ev):

    -2.8871  -0.5322   1.6457   4.0646   7.6798  12.0944  12.1459  12.9649
    13.0365  13.3898  19.8952  20.4382  21.6388  21.9755  22.7762  22.9657
    24.4673  25.7477

          k =-0.6250 0.0000 0.6250 (  2652 PWs)   bands (ev):

    -2.9509  -0.4707   1.6672   4.1046   7.7263  11.9984  12.1446  12.9596
    13.0649  13.3137  19.7982  20.3428  21.6230  22.0536  22.6442  23.0783
    24.4494  25.8005

          k =-0.6161 0.0000 0.6161 (  2670 PWs)   bands (ev):

    -3.0156  -0.4077   1.6920   4.1451   7.7734  11.9036  12.1069  12.8840
    13.2030  13.2395  19.7014  20.2493  21.5652  22.1307  22.5558  23.1900
    24.3990  25.8712

          k =-0.6071 0.0000 0.6071 (  2672 PWs)   bands (ev):

    -3.0810  -0.3432   1.7199   4.1863   7.8210  11.8099  12.0478  12.8097
    13.1672  13.3639  19.6051  20.1579  21.4613  22.2069  22.5148  23.3009
    24.3212  25.9552

          k =-0.5982 0.0000 0.5982 (  2672 PWs)   bands (ev):

    -3.1470  -0.2774   1.7508   4.2279   7.8691  11.7174  11.9770  12.7369
    13.0968  13.5378  19.5095  20.0688  21.3185  22.2819  22.5138  23.4110
    24.2214  26.0479

          k =-0.5893-0.0000 0.5893 (  2672 PWs)   bands (ev):

    -3.2136  -0.2101   1.7846   4.2700   7.9176  11.6261  11.8998  12.6656
    13.0284  13.7193  19.4146  19.9822  21.1490  22.3558  22.5410  23.5204
    24.1043  26.1453

          k =-0.5804-0.0000 0.5804 (  2674 PWs)   bands (ev):

    -3.2805  -0.1413   1.8212   4.3125   7.9665  11.5360  11.8190  12.5958
    12.9620  13.9050  19.3206  19.8984  20.9628  22.4283  22.5861  23.6291
    23.9737  26.2443

          k =-0.5714 0.0000 0.5714 (  2672 PWs)   bands (ev):

    -3.3477  -0.0712   1.8605   4.3554   8.0156  11.4472  11.7363  12.5277
    12.8977  14.0930  19.2275  19.8176  20.7664  22.4993  22.6427  23.7372
    23.8327  26.3430

          k =-0.5625 0.0000 0.5625 (  2672 PWs)   bands (ev):

    -3.4150   0.0003   1.9023   4.3987   8.0648  11.3595  11.6528  12.4613
    12.8355  14.2820  19.1353  19.7401  20.5640  22.5686  22.7067  23.6835
    23.8447  26.4399

          k =-0.5536 0.0000 0.5536 (  2668 PWs)   bands (ev):

    -3.4825   0.0733   1.9466   4.4422   8.1142  11.2732  11.5690  12.3967
    12.7755  14.4708  19.0439  19.6663  20.3580  22.6359  22.7757  23.5279
    23.9516  26.5343

          k =-0.5446 0.0000 0.5446 (  2662 PWs)   bands (ev):

    -3.5499   0.1476   1.9933   4.4861   8.1635  11.1880  11.4855  12.3340
    12.7178  14.6586  18.9533  19.5967  20.1503  22.7010  22.8482  23.3673
    24.0580  26.6258

          k =-0.5357 0.0000 0.5357 (  2666 PWs)   bands (ev):

    -3.6172   0.2234   2.0422   4.5301   8.2127  11.1042  11.4024  12.2733
    12.6623  14.8445  18.8633  19.5318  19.9418  22.7635  22.9232  23.2029
    24.1640  26.7144

          k =-0.5268-0.0000 0.5268 (  2666 PWs)   bands (ev):

    -3.6842   0.3005   2.0934   4.5743   8.2617  11.0216  11.3199  12.2145
    12.6091  15.0274  18.7737  19.4722  19.7338  22.8230  23.0000  23.0356
    24.2696  26.8001

          k =-0.5179-0.0000 0.5179 (  2672 PWs)   bands (ev):

    -3.7511   0.3791   2.1467   4.6187   8.3104  10.9403  11.2383  12.1580
    12.5584  15.2065  18.6839  19.4188  19.5271  22.8662  22.8790  23.0782
    24.3748  26.8831

          k =-0.5089 0.0000 0.5089 (  2672 PWs)   bands (ev):

    -3.8175   0.4590   2.2020   4.6631   8.3586  10.8603  11.1576  12.1036
    12.5100  15.3806  18.5932  19.3228  19.3723  22.6955  22.9309  23.1574
    24.4798  26.9636

          k =-0.5000 0.0000 0.5000 (  2676 PWs)   bands (ev):

    -3.8836   0.5403   2.2593   4.7075   8.4062  10.7816  11.0778  12.0516
    12.4642  15.5484  18.5004  19.1227  19.3339  22.5241  22.9780  23.2373
    24.5845  27.0418

          k =-0.4911 0.0000 0.4911 (  2676 PWs)   bands (ev):

    -3.9492   0.6229   2.3185   4.7519   8.4531  10.7041  10.9991  12.0020
    12.4208  15.7085  18.4031  18.9292  19.3047  22.3525  23.0195  23.3177
    24.6889  27.1181

          k =-0.4821 0.0000 0.4821 (  2664 PWs)   bands (ev):

    -4.0142   0.7069   2.3795   4.7962   8.4990  10.6280  10.9215  11.9549
    12.3801  15.8592  18.2973  18.7467  19.2861  22.1815  23.0545  23.3985
    24.7933  27.1928

          k =-0.4732 0.0000 0.4732 (  2668 PWs)   bands (ev):

    -4.0786   0.7923   2.4423   4.8403   8.5440  10.5533  10.8451  11.9104
    12.3420  15.9989  18.1770  18.5811  19.2793  22.0115  23.0819  23.4793
    24.8975  27.1044

          k =-0.4643-0.0000 0.4643 (  2668 PWs)   bands (ev):

    -4.1424   0.8790   2.5067   4.8843   8.5877  10.4798  10.7697  11.8687
    12.3066  16.1259  18.0367  18.4384  19.2859  21.8433  23.1006  23.5601
    25.0017  26.9538

          k =-0.4554-0.0000 0.4554 (  2668 PWs)   bands (ev):

    -4.2055   0.9670   2.5728   4.9280   8.6301  10.4077  10.6956  11.8297
    12.2739  16.2383  17.8757  18.3191  19.3068  21.6777  23.1093  23.6406
    25.1058  26.8143

          k =-0.4464 0.0000 0.4464 (  2672 PWs)   bands (ev):

    -4.2678   1.0564   2.6404   4.9714   8.6710  10.3369  10.6226  11.7937
    12.2441  16.3349  17.6994  18.2183  19.3427  21.5155  23.1068  23.7207
    25.2099  26.6872

          k =-0.4375 0.0000 0.4375 (  2670 PWs)   bands (ev):

    -4.3294   1.1471   2.7095   5.0144   8.7101  10.2674  10.5509  11.7606
    12.2171  16.4145  17.5139  18.1299  19.3936  21.3581  23.0919  23.8001
    25.3140  26.5741

          k =-0.4286 0.0000 0.4286 (  2670 PWs)   bands (ev):

    -4.3901   1.2391   2.7801   5.0570   8.7474  10.1993  10.4804  11.7305
    12.1930  16.4766  17.3235  18.0498  19.4581  21.2075  23.0635  23.8785
    25.4182  26.4760

          k =-0.4196 0.0000 0.4196 (  2670 PWs)   bands (ev):

    -4.4500   1.3324   2.8520   5.0990   8.7828  10.1326  10.4111  11.7034
    12.1718  16.5215  17.1309  17.9754  19.5331  21.0666  23.0209  23.9556
    25.5225  26.3939

          k =-0.4107 0.0000 0.4107 (  2666 PWs)   bands (ev):

    -4.5089   1.4270   2.9253   5.1406   8.8159  10.0672  10.3430  11.6794
    12.1536  16.5498  16.9377  17.9053  19.6133  20.9405  22.9637  24.0311
    25.6269  26.3282

          k =-0.4018-0.0000 0.4018 (  2666 PWs)   bands (ev):

    -4.5669   1.5229   2.9998   5.1815   8.8468  10.0031  10.2762  11.6585
    12.1385  16.5627  16.7449  17.8387  19.6889  20.8375  22.8919  24.1043
    25.7315  26.2791

          k =-0.3929-0.0000 0.3929 (  2666 PWs)   bands (ev):

    -4.6240   1.6200   3.0755   5.2218   8.8752   9.9404  10.2106  11.6406
    12.1264  16.5532  16.5615  17.7751  19.7457  20.7708  22.8059  24.1748
    25.8362  26.2460

          k =-0.3839 0.0000 0.3839 (  2666 PWs)   bands (ev):

    -4.6800   1.7183   3.1523   5.2614   8.9011   9.8791  10.1462  11.6255
    12.1175  16.3630  16.5479  17.7143  19.7665  20.7562  22.7066  24.2418
    25.9411  26.2284

          k =-0.3750 0.0000 0.3750 (  2662 PWs)   bands (ev):

    -4.7350   1.8180   3.2302   5.3002   8.9245   9.8192  10.0831  11.6132
    12.1117  16.1749  16.5233  17.6560  19.7415  20.8018  22.5951  24.3043
    26.0462  26.2249

          k =-0.3661 0.0000 0.3661 (  2670 PWs)   bands (ev):

    -4.7890   1.9188   3.3091   5.3382   8.9452   9.7606  10.0213  11.6034
    12.1091  15.9892  16.4891  17.6001  19.6764  20.9009  22.4728  24.3613
    26.1515  26.2344

          k =-0.3571 0.0000 0.3571 (  2670 PWs)   bands (ev):

    -4.8419   2.0208   3.3889   5.3754   8.9632   9.7034   9.9606  11.5959
    12.1097  15.8063  16.4466  17.5465  19.5845  21.0389  22.3410  24.4113
    26.2556  26.2570

          k =-0.3482 0.0000 0.3482 (  2662 PWs)   bands (ev):

    -4.8938   2.1240   3.4697   5.4116   8.9786   9.6476   9.9012  11.5902
    12.1136  15.6266  16.3968  17.4953  19.4773  21.2033  22.2011  24.4525
    26.2870  26.3627

          k =-0.3393-0.0000 0.3393 (  2662 PWs)   bands (ev):

    -4.9445   2.2284   3.5512   5.4469   8.9914   9.5932   9.8430  11.5859
    12.1207  15.4505  16.3406  17.4464  19.3624  21.3856  22.0544  24.4831
    26.3274  26.4686

          k =-0.3304-0.0000 0.3304 (  2659 PWs)   bands (ev):

    -4.9940   2.3339   3.6335   5.4813   9.0016   9.5401   9.7861  11.5826
    12.1310  15.2785  16.2787  17.3997  19.2443  21.5809  21.9020  24.5006
    26.3757  26.5748

          k =-0.3214 0.0000 0.3214 (  2663 PWs)   bands (ev):

    -5.0425   2.4406   3.7165   5.5146   9.0093   9.4884   9.7303  11.5796
    12.1447  15.1111  16.2119  17.3554  19.1256  21.7451  21.7857  24.5030
    26.4307  26.6812

          k =-0.3125 0.0000 0.3125 (  2671 PWs)   bands (ev):

    -5.0897   2.5483   3.8000   5.5468   9.0147   9.4382   9.6758  11.5761
    12.1616  14.9489  16.1406  17.3134  19.0080  21.5845  21.9979  24.4881
    26.4917  26.7484

          k =-0.3036 0.0000 0.3036 (  2671 PWs)   bands (ev):

    -5.1358   2.6571   3.8841   5.5780   9.0178   9.3893   9.6224  11.5714
    12.1817  14.7926  16.0654  17.2737  18.8927  21.4211  22.2160  24.4546
    26.5576  26.6865

          k =-0.2946 0.0000 0.2946 (  2667 PWs)   bands (ev):

    -5.1806   2.7670   3.9686   5.6080   9.0189   9.3418   9.5703  11.5644
    12.2051  14.6429  15.9866  17.2363  18.7803  21.2556  22.4388  24.4021
    26.6279  26.6466

          k =-0.2857 0.0000 0.2857 (  2663 PWs)   bands (ev):

    -5.2243   2.8778   4.0535   5.6370   9.0180   9.2957   9.5193  11.5543
    12.2318  14.5006  15.9046  17.2014  18.6715  21.0885  22.6655  24.3313
    26.6279  26.7020

          k =-0.2768-0.0000 0.2768 (  2663 PWs)   bands (ev):

    -5.2667   2.9896   4.1386   5.6648   9.0153   9.2510   9.4696  11.5398
    12.2616  14.3667  15.8199  17.1689  18.5665  20.9205  22.8955  24.2439
    26.6290  26.7791

          k =-0.2679-0.0000 0.2679 (  2681 PWs)   bands (ev):

    -5.3079   3.1024   4.2238   5.6915   9.0110   9.2077   9.4209  11.5197
    12.2945  14.2421  15.7326  17.1389  18.4656  20.7519  23.1282  24.1422
    26.6474  26.8590

          k =-0.2589 0.0000 0.2589 (  2673 PWs)   bands (ev):

    -5.3478   3.2160   4.3092   5.7170   9.0053   9.1659   9.3735  11.4931
    12.3305  14.1276  15.6433  17.1114  18.3689  20.5833  23.3631  24.0288
    26.6807  26.9411

          k =-0.2500 0.0000 0.2500 (  2673 PWs)   bands (ev):

    -5.3865   3.3305   4.3944   5.7414   8.9982   9.1254   9.3272  11.4588
    12.3696  14.0242  15.5521  17.0864  18.2766  20.4150  23.5998  23.9062
    26.7266  27.0251

          k =-0.2411 0.0000 0.2411 (  2673 PWs)   bands (ev):

    -5.4238   3.4458   4.4796   5.7646   8.9900   9.0863   9.2820  11.4158
    12.4116  13.9325  15.4596  17.0640  18.1886  20.2472  23.7766  23.8380
    26.7827  27.1105

          k =-0.2321 0.0000 0.2321 (  2685 PWs)   bands (ev):

    -5.4599   3.5617   4.5644   5.7867   8.9808   9.0486   9.2380  11.3635
    12.4564  13.8530  15.3659  17.0442  18.1050  20.0804  23.6419  24.0773
    26.8474  27.1972

          k =-0.2232 0.0000 0.2232 (  2677 PWs)   bands (ev):

    -5.4947   3.6784   4.6488   5.8076   8.9707   9.0124   9.1951  11.3016
    12.5040  13.7858  15.2715  17.0270  18.0257  19.9148  23.5038  24.3175
    26.9189  27.2846

          k =-0.2143-0.0000 0.2143 (  2681 PWs)   bands (ev):

    -5.5283   3.7956   4.7327   5.8275   8.9599   8.9775   9.1533  11.2301
    12.5543  13.7308  15.1767  17.0125  17.9507  19.7507  23.3636  24.5582
    26.9960  27.3726

          k =-0.2054-0.0000 0.2054 (  2685 PWs)   bands (ev):

    -5.5604   3.9132   4.8159   5.8462   8.9441   8.9484   9.1127  11.1494
    12.6070  13.6872  15.0820  17.0006  17.8799  19.5882  23.2225  24.7991
    27.0778  27.4609

          k =-0.1964 0.0000 0.1964 (  2685 PWs)   bands (ev):

    -5.5913   4.0313   4.8982   5.8639   8.9121   8.9364   9.0731  11.0602
    12.6622  13.6544  14.9876  16.9914  17.8131  19.4278  23.0813  25.0398
    27.1634  27.5491

          k =-0.1875 0.0000 0.1875 (  2685 PWs)   bands (ev):

    -5.6209   4.1496   4.9795   5.8805   8.8815   8.9240   9.0347  10.9633
    12.7195  13.6312  14.8940  16.9848  17.7502  19.2696  22.9409  25.2802
    27.2520  27.6370

          k =-0.1786 0.0000 0.1786 (  2691 PWs)   bands (ev):

    -5.6491   4.2681   5.0596   5.8960   8.8523   8.9111   8.9974  10.8600
    12.7788  13.6166  14.8015  16.9809  17.6912  19.1139  22.8019  25.5197
    27.3430  27.7242

          k =-0.1696 0.0000 0.1696 (  2691 PWs)   bands (ev):

    -5.6759   4.3865   5.1383   5.9106   8.8245   8.8979   8.9613  10.7514
    12.8400  13.6091  14.7106  16.9795  17.6359  18.9609  22.6650  25.7580
    27.4360  27.8106

          k =-0.1607 0.0000 0.1607 (  2693 PWs)   bands (ev):

    -5.7015   4.5047   5.2154   5.9242   8.7982   8.8844   8.9263  10.6386
    12.9027  13.6078  14.6215  16.9805  17.5842  18.8110  22.5308  25.9947
    27.5304  27.8957

          k =-0.1518-0.0000 0.1518 (  2693 PWs)   bands (ev):

    -5.7256   4.6225   5.2907   5.9368   8.7733   8.8706   8.8924  10.5229
    12.9667  13.6113  14.5347  16.9840  17.5359  18.6645  22.3996  26.2293
    27.6258  27.9793

          k =-0.1429-0.0000 0.1429 (  2693 PWs)   bands (ev):

    -5.7485   4.7397   5.3639   5.9486   8.7497   8.8564   8.8598  10.4054
    13.0317  13.6188  14.4505  16.9897  17.4910  18.5216  22.2721  26.4612
    27.7218  28.0611

          k =-0.1339 0.0000 0.1339 (  2697 PWs)   bands (ev):

    -5.7699   4.8559   5.4349   5.9594   8.7276   8.8285   8.8419  10.2872
    13.0974  13.6293  14.3692  16.9975  17.4494  18.3827  22.1487  26.6899
    27.8179  28.1406

          k =-0.1250 0.0000 0.1250 (  2697 PWs)   bands (ev):

    -5.7900   4.9708   5.5033   5.9694   8.7070   8.7984   8.8269  10.1694
    13.1634  13.6419  14.2913  17.0072  17.4109  18.2482  22.0299  26.9144
    27.9138  28.2176

          k =-0.1161 0.0000 0.1161 (  2697 PWs)   bands (ev):

    -5.8087   5.0841   5.5689   5.9785   8.6877   8.7697   8.8113  10.0533
    13.2293  13.6560  14.2170  17.0186  17.3754  18.1186  21.9161  27.1340
    28.0089  28.2917

          k =-0.1071 0.0000 0.1071 (  2697 PWs)   bands (ev):

    -5.8261   5.1952   5.6314   5.9868   8.6699   8.7424   8.7950   9.9398
    13.2946  13.6710  14.1467  17.0313  17.3429  17.9943  21.8078  27.3475
    28.1027  28.3625

          k =-0.0982 0.0000 0.0982 (  2701 PWs)   bands (ev):

    -5.8421   5.3036   5.6906   5.9944   8.6535   8.7167   8.7777   9.8302
    13.3587  13.6863  14.0807  17.0452  17.3133  17.8758  21.7056  27.5538
    28.1946  28.4296

          k =-0.0893-0.0000 0.0893 (  2701 PWs)   bands (ev):

    -5.8567   5.4086   5.7460   6.0012   8.6385   8.6926   8.7592   9.7258
    13.4212  13.7015  14.0194  17.0598  17.2865  17.7638  21.6099  27.7513
    28.2841  28.4927

          k =-0.0804-0.0000 0.0804 (  2701 PWs)   bands (ev):

    -5.8699   5.5094   5.7974   6.0073   8.6250   8.6702   8.7393   9.6280
    13.4813  13.7161  13.9629  17.0748  17.2624  17.6589  21.5212  27.9383
    28.3702  28.5513

          k =-0.0714 0.0000 0.0714 (  2705 PWs)   bands (ev):

    -5.8817   5.6051   5.8445   6.0126   8.6129   8.6497   8.7178   9.5380
    13.5382  13.7300  13.9116  17.0897  17.2410  17.5619  21.4401  28.1127
    28.4522  28.6050

          k =-0.0625 0.0000 0.0625 (  2705 PWs)   bands (ev):

    -5.8922   5.6946   5.8870   6.0173   8.6022   8.6311   8.6948   9.4572
    13.5913  13.7427  13.8656  17.1043  17.2223  17.4734  21.3670  28.2723
    28.5291  28.6535

          k =-0.0536 0.0000 0.0536 (  2705 PWs)   bands (ev):

    -5.9012   5.7767   5.9245   6.0213   8.5929   8.6147   8.6704   9.3867
    13.6398  13.7541  13.8254  17.1180  17.2061  17.3944  21.3024  28.4147
    28.5996  28.6964

          k =-0.0446 0.0000 0.0446 (  2705 PWs)   bands (ev):

    -5.9089   5.8499   5.9568   6.0247   8.5850   8.6005   8.6455   9.3274
    13.6826  13.7641  13.7909  17.1304  17.1925  17.3256  21.2468  28.5377
    28.6626  28.7334

          k =-0.0357 0.0000 0.0357 (  2705 PWs)   bands (ev):

    -5.9152   5.9127   5.9836   6.0275   8.5786   8.5887   8.6213   9.2795
    13.7191  13.7625  13.7724  17.1412  17.1814  17.2679  21.2007  28.6394
    28.7167  28.7641

          k =-0.0268-0.0000 0.0268 (  2701 PWs)   bands (ev):

    -5.9200   5.9637   6.0048   6.0296   8.5736   8.5794   8.5996   9.2430
    13.7402  13.7485  13.7790  17.1499  17.1728  17.2220  21.1644  28.7186
    28.7607  28.7883

          k =-0.0179-0.0000 0.0179 (  2699 PWs)   bands (ev):

    -5.9235   6.0013   6.0200   6.0311   8.5700   8.5726   8.5823   9.2174
    13.7242  13.7700  13.7837  17.1564  17.1667  17.1887  21.1382  28.7750
    28.7931  28.8057

          k =-0.0089 0.0000 0.0089 (  2695 PWs)   bands (ev):

    -5.9256   6.0245   6.0292   6.0320   8.5679   8.5686   8.5711   9.2024
    13.7146  13.7832  13.7866  17.1604  17.1630  17.1685  21.1224  28.8086
    28.8131  28.8163

          k = 0.0000 0.0000 0.0000 (  2685 PWs)   bands (ev):

    -5.9263   6.0323   6.0323   6.0323   8.5672   8.5672   8.5672   9.1974
    13.7114  13.7876  13.7876  17.1618  17.1618  17.1618  21.1171  28.8198
    28.8198  28.8198

     Writing all to output data dir ./temp/si.save/
 
     init_run     :      0.20s CPU      0.22s WALL (       1 calls)
     electrons    :     26.30s CPU     26.59s WALL (       1 calls)

     Called by init_run:
     wfcinit      :      0.00s CPU      0.00s WALL (       1 calls)
     wfcinit:atom :      0.01s CPU      0.01s WALL (      31 calls)
     wfcinit:wfcr :      0.65s CPU      0.66s WALL (      31 calls)
     potinit      :      0.02s CPU      0.03s WALL (       1 calls)
     hinit0       :      0.04s CPU      0.06s WALL (       1 calls)

     Called by electrons:
     c_bands      :     26.28s CPU     26.58s WALL (       1 calls)
     v_of_rho     :      0.00s CPU      0.01s WALL (       1 calls)
     v_h          :      0.00s CPU      0.00s WALL (       1 calls)
     v_xc         :      0.00s CPU      0.00s WALL (       1 calls)

     Called by c_bands:
     init_us_2    :      0.02s CPU      0.02s WALL (      31 calls)
     init_us_2:cp :      0.02s CPU      0.02s WALL (      31 calls)
     cegterg      :     20.31s CPU     20.58s WALL (      89 calls)

     Called by sum_band:

     Called by *egterg:
     cdiaghg      :      0.79s CPU      0.80s WALL (    1565 calls)
     cegterg:over :      1.26s CPU      1.27s WALL (    1534 calls)
     cegterg:upda :      0.64s CPU      0.65s WALL (    1534 calls)
     cegterg:last :      1.00s CPU      1.01s WALL (     876 calls)
     h_psi        :     16.46s CPU     16.72s WALL (    1654 calls)
     g_psi        :      0.26s CPU      0.26s WALL (    1534 calls)

     Called by h_psi:
     h_psi:calbec :      0.77s CPU      0.79s WALL (    1654 calls)
     vloc_psi     :     15.03s CPU     15.26s WALL (    1654 calls)
     add_vuspsi   :      0.58s CPU      0.59s WALL (    1654 calls)

     General routines
     calbec       :      0.76s CPU      0.79s WALL (    1654 calls)
     fft          :      0.00s CPU      0.02s WALL (       4 calls)
     fftw         :     13.36s CPU     13.56s WALL (   32118 calls)
 
     Parallel routines
 
     PWSCF        :     26.87s CPU     27.23s WALL

 
   This run was terminated on:  18:16:39  17Jul2022            

=------------------------------------------------------------------------------=
   JOB DONE.
=------------------------------------------------------------------------------=
