 
             +---------------------------------------------------+
             |                                                   |
             |                   WANNIER90                       |
             |                                                   |
             +---------------------------------------------------+
             |                                                   |
             |        Welcome to the Maximally-Localized         |
             |        Generalized Wannier Functions code         |
             |            http://www.wannier.org                 |
             |                                                   |
             |                                                   |
             |  Wannier90 Developer Group:                       |
             |    Giovanni Pizzi    (EPFL)                       |
             |    Valerio Vitale    (Cambridge)                  |
             |    David Vanderbilt  (Rutgers University)         |
             |    Nicola Marzari    (EPFL)                       |
             |    Ivo Souza         (Universidad del Pais Vasco) |
             |    Arash A. Mostofi  (Imperial College London)    |
             |    Jonathan R. Yates (University of Oxford)       |
             |                                                   |
             |  For the full list of Wannier90 3.x authors,      |
             |  please check the code documentation and the      |
             |  README on the GitHub page of the code            |
             |                                                   |
             |                                                   |
             |  Please cite                                      |
             |                                                   |
             |  [ref] "Wannier90 as a community code:            |
             |        new features and applications",            |
             |        G. Pizzi et al., J. Phys. Cond. Matt. 32,  |
             |        165902 (2020).                             |
             |        http://doi.org/10.1088/1361-648X/ab51ff    |
             |                                                   |
             |  in any publications arising from the use of      |
             |  this code. For the method please cite            |
             |                                                   |
             |  [ref] "Maximally Localized Generalised Wannier   |
             |         Functions for Composite Energy Bands"     |
             |         N. Marzari and D. Vanderbilt              |
             |         Phys. Rev. B 56 12847 (1997)              |
             |                                                   |
             |  [ref] "Maximally Localized Wannier Functions     |
             |         for Entangled Energy Bands"               |
             |         I. Souza, N. Marzari and D. Vanderbilt    |
             |         Phys. Rev. B 65 035109 (2001)             |
             |                                                   |
             |                                                   |
             | Copyright (c) 1996-2020                           |
             |        The Wannier90 Developer Group and          |
             |        individual contributors                    |
             |                                                   |
             |      Release: 3.1.0        5th March    2020      |
             |                                                   |
             | This program is free software; you can            |
             | redistribute it and/or modify it under the terms  |
             | of the GNU General Public License as published by |
             | the Free Software Foundation; either version 2 of |
             | the License, or (at your option) any later version|
             |                                                   |
             | This program is distributed in the hope that it   |
             | will be useful, but WITHOUT ANY WARRANTY; without |
             | even the implied warranty of MERCHANTABILITY or   |
             | FITNESS FOR A PARTICULAR PURPOSE. See the GNU     |
             | General Public License for more details.          |
             |                                                   |
             | You should have received a copy of the GNU General|
             | Public License along with this program; if not,   |
             | write to the Free Software Foundation, Inc.,      |
             | 675 Mass Ave, Cambridge, MA 02139, USA.           |
             |                                                   |
             +---------------------------------------------------+
             |    Execution started on 17Jul2022 at 18:17:03     |
             +---------------------------------------------------+
 
 ******************************************************************************
 * -> Using CODATA 2006 constant values                                       *
 *    (http://physics.nist.gov/cuu/Constants/index.html)                      *
 * -> Using Bohr value from CODATA                                            *
 ******************************************************************************
 

 Running in parallel on  20 CPUs

 
                                    ------
                                    SYSTEM
                                    ------
 
                              Lattice Vectors (Ang)
                    a_1    -2.715547   0.000000   2.715547
                    a_2     0.000000   2.715547   2.715547
                    a_3    -2.715547   2.715547   0.000000
 
                   Unit Cell Volume:      40.04995  (Ang^3)
 
                        Reciprocal-Space Vectors (Ang^-1)
                    b_1    -1.156891  -1.156891   1.156891
                    b_2     1.156891   1.156891   1.156891
                    b_3    -1.156891   1.156891  -1.156891
  
 *----------------------------------------------------------------------------*
 |   Site       Fractional Coordinate          Cartesian Coordinate (Ang)     |
 +----------------------------------------------------------------------------+
 | Si   1   0.12500   0.12500   0.12500   |   -0.67889   0.67889   0.67889    |
 | Si   2  -0.12500  -0.12500  -0.12500   |    0.67889  -0.67889  -0.67889    |
 *----------------------------------------------------------------------------*
                                ------------
                                K-POINT GRID
                                ------------
  
             Grid size =  6 x  6 x  6      Total points =  216
  
  
 *---------------------------------- MAIN ------------------------------------*
 |  Number of Wannier Functions               :                 4             |
 |  Number of Objective Wannier Functions     :                 4             |
 |  Number of input Bloch states              :                 4             |
 |  Output verbosity (1=low, 5=high)          :                 1             |
 |  Timing Level (1=low, 5=high)              :                 1             |
 |  Optimisation (0=memory, 3=speed)          :                 3             |
 |  Length Unit                               :               Ang             |
 |  Post-processing setup (write *.nnkp)      :                 F             |
 |  Using Gamma-only branch of algorithms     :                 F             |
 *----------------------------------------------------------------------------*
 *------------------------------- WANNIERISE ---------------------------------*
 |  Total number of iterations                :              2000             |
 |  Number of CG steps before reset           :                 5             |
 |  Trial step length for line search         :             2.000             |
 |  Convergence tolerence                     :         0.100E-11             |
 |  Convergence window                        :                 5             |
 |  Iterations between writing output         :                 1             |
 |  Iterations between backing up to disk     :               100             |
 |  Write r^2_nm to file                      :                 F             |
 |  Write xyz WF centres to file              :                 F             |
 |  Write on-site energies <0n|H|0n> to file  :                 F             |
 |  Use guiding centre to control phases      :                 T             |
 |  Use phases for initial projections        :                 F             |
 |  Iterations before starting guiding centres:                 0             |
 |  Iterations between using guiding centres  :                 1             |
 *----------------------------------------------------------------------------*
 Time to read parameters        0.085 (sec)

 *---------------------------------- K-MESH ----------------------------------*
 +----------------------------------------------------------------------------+
 |                    Distance to Nearest-Neighbour Shells                    |
 |                    ------------------------------------                    |
 |          Shell             Distance (Ang^-1)          Multiplicity         |
 |          -----             -----------------          ------------         |
 |             1                   0.333966                      8            |
 |             2                   0.385630                      6            |
 |             3                   0.545364                     12            |
 |             4                   0.639496                     24            |
 |             5                   0.667932                      8            |
 |             6                   0.771261                      6            |
 |             7                   0.840462                     24            |
 |             8                   0.862296                     24            |
 |             9                   0.944598                     24            |
 |            10                   1.001897                     32            |
 |            11                   1.090728                     12            |
 |            12                   1.140710                     48            |
 |            13                   1.156891                     30            |
 |            14                   1.219471                     24            |
 |            15                   1.264374                     24            |
 |            16                   1.278991                     24            |
 |            17                   1.335863                      8            |
 |            18                   1.376976                     48            |
 |            19                   1.390410                     24            |
 |            20                   1.442897                     48            |
 |            21                   1.481042                     72            |
 |            22                   1.542522                      6            |
 |            23                   1.578261                     24            |
 |            24                   1.589995                     48            |
 |            25                   1.636091                     36            |
 |            26                   1.669829                     56            |
 |            27                   1.680924                     24            |
 |            28                   1.724592                     24            |
 |            29                   1.756630                     72            |
 |            30                   1.767181                     48            |
 |            31                   1.808767                     24            |
 |            32                   1.839340                     48            |
 |            33                   1.889196                     24            |
 |            34                   1.918487                     72            |
 |            35                   1.928152                     30            |
 |            36                   1.966337                     72            |
 +----------------------------------------------------------------------------+
 | The b-vectors are chosen automatically                                     |
 | The following shells are used:   1                                         |
 +----------------------------------------------------------------------------+
 |                        Shell   # Nearest-Neighbours                        |
 |                        -----   --------------------                        |
 |                          1               8                                 |
 +----------------------------------------------------------------------------+
 | Completeness relation is fully satisfied [Eq. (B1), PRB 56, 12847 (1997)]  |
 | Completeness relations for higher-order are fully satisfied                |
 +----------------------------------------------------------------------------+
 |                  b_k Vectors (Ang^-1) and Weights (Ang^2)                  |
 |                  ----------------------------------------                  |
 |            No.         b_k(x)      b_k(y)      b_k(z)        w_b           |
 |            ---        --------------------------------     --------        |
 |             1        -0.192815    0.192815   -0.192815     3.362230        |
 |             2         0.192815    0.192815    0.192815     3.362230        |
 |             3        -0.192815   -0.192815    0.192815     3.362230        |
 |             4        -0.192815    0.192815    0.192815     3.362230        |
 |             5         0.192815   -0.192815    0.192815     3.362230        |
 |             6        -0.192815   -0.192815   -0.192815     3.362230        |
 |             7         0.192815    0.192815   -0.192815     3.362230        |
 |             8         0.192815   -0.192815   -0.192815     3.362230        |
 +----------------------------------------------------------------------------+
 |                           b_k Directions (Ang^-1)                          |
 |                           -----------------------                          |
 |            No.           x           y           z                         |
 |            ---        --------------------------------                     |
 |             1        -0.192815    0.192815   -0.192815                     |
 |             2         0.192815    0.192815    0.192815                     |
 |             3        -0.192815   -0.192815    0.192815                     |
 |             4        -0.192815    0.192815    0.192815                     |
 +----------------------------------------------------------------------------+
  
 Time to get kmesh              0.222 (sec)
 *============================================================================*
 |                              MEMORY ESTIMATE                               |
 |         Maximum RAM allocated during each phase of the calculation         |
 *============================================================================*
 |                            Wannierise:            1.40 Mb                  |
 |                          plot_wannier:            1.40 Mb                  |
 *----------------------------------------------------------------------------*
  
 Starting a new Wannier90 calculation ...


 Reading overlaps from si.mmn    :  Created on 17Jul2022 at 18:17: 1

 Reading projections from si.amn :  Created on 17Jul2022 at 18:16:56

 Time to read overlaps          0.152 (sec)

 Writing checkpoint file si.chk... done

 
 *------------------------------- WANNIERISE ---------------------------------*
 +--------------------------------------------------------------------+<-- CONV
 | Iter  Delta Spread     RMS Gradient      Spread (Ang^2)      Time  |<-- CONV
 +--------------------------------------------------------------------+<-- CONV
 
 ------------------------------------------------------------------------------
 Initial State
  WF centre and spread    1  (  -0.000000048556263,   0.000000047513253,   0.000000018410154 )   1.934027748817770
  WF centre and spread    2  (  -1.357773456945650,  -0.000000033901459,   1.357773443853951 )   1.934027789252705
  WF centre and spread    3  (  -0.000000017549235,   1.357773468871673,   1.357773496612360 )   1.934027832285140
  WF centre and spread    4  (  -1.357773469657212,   1.357773476796729,   0.000000006038467 )   1.934027699757896
  Sum of centres and spreads (  -2.715546992708360,   2.715546959280196,   2.715546964914932 )   7.736111070113513
 
      0     0.774E+01     0.0000000000        7.7361110701       0.00  <-- CONV
        O_D=      0.0000000 O_OD=      0.6348452 O_TOT=      7.7361111 <-- SPRD
 ------------------------------------------------------------------------------
 Cycle:      1
  WF centre and spread    1  (  -0.000000046935749,   0.000000048357735,   0.000000015945014 )   1.916846139976024
  WF centre and spread    2  (  -1.357773456463092,  -0.000000034242516,   1.357773445305664 )   1.916846169316758
  WF centre and spread    3  (  -0.000000018887933,   1.357773468853285,   1.357773496062907 )   1.916846210997337
  WF centre and spread    4  (  -1.357773472078874,   1.357773477787151,   0.000000006707837 )   1.916846078998599
  Sum of centres and spreads (  -2.715546994365648,   2.715546960755655,   2.715546964021422 )   7.667384599288717
 
      1    -0.687E-01     0.1872986133        7.6673845992       0.00  <-- CONV
        O_D=      0.0000000 O_OD=      0.5661187 O_TOT=      7.6673846 <-- SPRD
 Delta: O_D=  0.4677472E-12 O_OD= -0.6872647E-01 O_TOT= -0.6872647E-01 <-- DLTA
 ------------------------------------------------------------------------------
 Cycle:      2
  WF centre and spread    1  (  -0.000000046186740,   0.000000049279249,   0.000000015158265 )   1.915127485547980
  WF centre and spread    2  (  -1.357773456563197,  -0.000000034591038,   1.357773445429185 )   1.915127511594553
  WF centre and spread    3  (  -0.000000020092875,   1.357773468530209,   1.357773496690891 )   1.915127555858485
  WF centre and spread    4  (  -1.357773472702730,   1.357773478212806,   0.000000007542654 )   1.915127427006523
  Sum of centres and spreads (  -2.715546995545542,   2.715546961431226,   2.715546964820996 )   7.660509980007539
 
      2    -0.687E-02     0.0668238903        7.6605099800       0.01  <-- CONV
        O_D=      0.0000000 O_OD=      0.5592441 O_TOT=      7.6605100 <-- SPRD
 Delta: O_D=  0.2718344E-12 O_OD= -0.6874619E-02 O_TOT= -0.6874619E-02 <-- DLTA
 ------------------------------------------------------------------------------
 Cycle:      3
  WF centre and spread    1  (  -0.000000045795856,   0.000000049748131,   0.000000014387749 )   1.914963227138790
  WF centre and spread    2  (  -1.357773456336465,  -0.000000034637894,   1.357773445306163 )   1.914963251281591
  WF centre and spread    3  (  -0.000000020671376,   1.357773468076058,   1.357773497078594 )   1.914963299414680
  WF centre and spread    4  (  -1.357773472973528,   1.357773478373000,   0.000000008188369 )   1.914963170345090
  Sum of centres and spreads (  -2.715546995777224,   2.715546961559295,   2.715546964960875 )   7.659852948180152
 
      3    -0.657E-03     0.0247744700        7.6598529481       0.01  <-- CONV
        O_D=      0.0000000 O_OD=      0.5585870 O_TOT=      7.6598529 <-- SPRD
 Delta: O_D= -0.1113038E-11 O_OD= -0.6570318E-03 O_TOT= -0.6570318E-03 <-- DLTA
 ------------------------------------------------------------------------------
 Cycle:      4
  WF centre and spread    1  (  -0.000000045356592,   0.000000049907615,   0.000000013865850 )   1.914943305416508
  WF centre and spread    2  (  -1.357773456091922,  -0.000000034776417,   1.357773445096495 )   1.914943327613076
  WF centre and spread    3  (  -0.000000021029092,   1.357773467936162,   1.357773497279485 )   1.914943377568448
  WF centre and spread    4  (  -1.357773473143235,   1.357773478586403,   0.000000008879667 )   1.914943250222393
  Sum of centres and spreads (  -2.715546995620842,   2.715546961653763,   2.715546965121498 )   7.659773260820423
 
      4    -0.797E-04     0.0089600765        7.6597732608       0.01  <-- CONV
        O_D=      0.0000000 O_OD=      0.5585074 O_TOT=      7.6597733 <-- SPRD
 Delta: O_D= -0.4804415E-12 O_OD= -0.7968736E-04 O_TOT= -0.7968736E-04 <-- DLTA
 ------------------------------------------------------------------------------
 Cycle:      5
  WF centre and spread    1  (  -0.000000045024671,   0.000000050111133,   0.000000013332919 )   1.914942324303921
  WF centre and spread    2  (  -1.357773455963799,  -0.000000034862661,   1.357773444926052 )   1.914942344515855
  WF centre and spread    3  (  -0.000000021452044,   1.357773467734647,   1.357773497513628 )   1.914942396697489
  WF centre and spread    4  (  -1.357773473346789,   1.357773478803112,   0.000000009465477 )   1.914942270370499
  Sum of centres and spreads (  -2.715546995787304,   2.715546961786230,   2.715546965238075 )   7.659769335887763
 
      5    -0.392E-05     0.0018888593        7.6597693358       0.01  <-- CONV
        O_D=      0.0000000 O_OD=      0.5585034 O_TOT=      7.6597693 <-- SPRD
 Delta: O_D= -0.3684770E-13 O_OD= -0.3924933E-05 O_TOT= -0.3924933E-05 <-- DLTA
 ------------------------------------------------------------------------------
 Cycle:      6
  WF centre and spread    1  (  -0.000000044707233,   0.000000050316637,   0.000000012850967 )   1.914942257508751
  WF centre and spread    2  (  -1.357773455799781,  -0.000000035000915,   1.357773444763892 )   1.914942275899541
  WF centre and spread    3  (  -0.000000021812847,   1.357773467574667,   1.357773497743657 )   1.914942330151787
  WF centre and spread    4  (  -1.357773473524445,   1.357773479035961,   0.000000010063110 )   1.914942204733723
  Sum of centres and spreads (  -2.715546995844305,   2.715546961926351,   2.715546965421626 )   7.659769068293802
 
      6    -0.268E-06     0.0004882150        7.6597690682       0.01  <-- CONV
        O_D=      0.0000000 O_OD=      0.5585032 O_TOT=      7.6597691 <-- SPRD
 Delta: O_D= -0.1423793E-13 O_OD= -0.2675939E-06 O_TOT= -0.2675940E-06 <-- DLTA
 ------------------------------------------------------------------------------
 Cycle:      7
  WF centre and spread    1  (  -0.000000044466640,   0.000000050490083,   0.000000012456216 )   1.914942249313294
  WF centre and spread    2  (  -1.357773455695438,  -0.000000035089800,   1.357773444636034 )   1.914942266248175
  WF centre and spread    3  (  -0.000000022114310,   1.357773467432819,   1.357773497934797 )   1.914942322177422
  WF centre and spread    4  (  -1.357773473680888,   1.357773479209394,   0.000000010508328 )   1.914942197419177
  Sum of centres and spreads (  -2.715546995957276,   2.715546962042494,   2.715546965535375 )   7.659769035158067
 
      7    -0.331E-07     0.0001807369        7.6597690351       0.02  <-- CONV
        O_D=      0.0000000 O_OD=      0.5585031 O_TOT=      7.6597690 <-- SPRD
 Delta: O_D= -0.1315831E-13 O_OD= -0.3313572E-07 O_TOT= -0.3313574E-07 <-- DLTA
 ------------------------------------------------------------------------------
 Cycle:      8
  WF centre and spread    1  (  -0.000000044122083,   0.000000050730831,   0.000000011916738 )   1.914942247701030
  WF centre and spread    2  (  -1.357773455526274,  -0.000000035247414,   1.357773444450288 )   1.914942262652966
  WF centre and spread    3  (  -0.000000022515507,   1.357773467250972,   1.357773498198152 )   1.914942320844063
  WF centre and spread    4  (  -1.357773473892793,   1.357773479467804,   0.000000011151173 )   1.914942197032144
  Sum of centres and spreads (  -2.715546996056657,   2.715546962202192,   2.715546965716351 )   7.659769028230203
 
      8    -0.693E-08     0.0000732484        7.6597690282       0.02  <-- CONV
        O_D=      0.0000000 O_OD=      0.5585031 O_TOT=      7.6597690 <-- SPRD
 Delta: O_D=  0.4040903E-14 O_OD= -0.6927872E-08 O_TOT= -0.6927869E-08 <-- DLTA
 ------------------------------------------------------------------------------
 Cycle:      9
  WF centre and spread    1  (  -0.000000043885409,   0.000000050905935,   0.000000011530198 )   1.914942247684142
  WF centre and spread    2  (  -1.357773455415888,  -0.000000035351349,   1.357773444319214 )   1.914942261238711
  WF centre and spread    3  (  -0.000000022805286,   1.357773467114286,   1.357773498392501 )   1.914942321052127
  WF centre and spread    4  (  -1.357773474048319,   1.357773479646376,   0.000000011595404 )   1.914942197859241
  Sum of centres and spreads (  -2.715546996154901,   2.715546962315249,   2.715546965837318 )   7.659769027834223
 
      9    -0.396E-09     0.0000191585        7.6597690278       0.02  <-- CONV
        O_D=      0.0000000 O_OD=      0.5585031 O_TOT=      7.6597690 <-- SPRD
 Delta: O_D= -0.2298729E-14 O_OD= -0.3959905E-09 O_TOT= -0.3959926E-09 <-- DLTA
 ------------------------------------------------------------------------------
 Cycle:     10
  WF centre and spread    1  (  -0.000000043744534,   0.000000051010882,   0.000000011304008 )   1.914942247726455
  WF centre and spread    2  (  -1.357773455345031,  -0.000000035422461,   1.357773444238686 )   1.914942260477134
  WF centre and spread    3  (  -0.000000022970477,   1.357773467037747,   1.357773498506043 )   1.914942321216544
  WF centre and spread    4  (  -1.357773474139761,   1.357773479755641,   0.000000011861705 )   1.914942198393242
  Sum of centres and spreads (  -2.715546996199803,   2.715546962381809,   2.715546965910441 )   7.659769027813374
 
     10    -0.209E-10     0.0000048111        7.6597690278       0.02  <-- CONV
        O_D=      0.0000000 O_OD=      0.5585031 O_TOT=      7.6597690 <-- SPRD
 Delta: O_D= -0.5557764E-13 O_OD= -0.2079559E-10 O_TOT= -0.2085088E-10 <-- DLTA
 ------------------------------------------------------------------------------
 Cycle:     11
  WF centre and spread    1  (  -0.000000043742615,   0.000000051012335,   0.000000011300889 )   1.914942247727077
  WF centre and spread    2  (  -1.357773455344085,  -0.000000035423416,   1.357773444237582 )   1.914942260466741
  WF centre and spread    3  (  -0.000000022972761,   1.357773467036671,   1.357773498507629 )   1.914942321218946
  WF centre and spread    4  (  -1.357773474141026,   1.357773479757128,   0.000000011865338 )   1.914942198400549
  Sum of centres and spreads (  -2.715546996200487,   2.715546962382717,   2.715546965911437 )   7.659769027813311
 
     11    -0.728E-13     0.0000017407        7.6597690278       0.02  <-- CONV
        O_D=      0.0000000 O_OD=      0.5585031 O_TOT=      7.6597690 <-- SPRD
 Delta: O_D= -0.1073654E-15 O_OD= -0.7216450E-13 O_TOT= -0.7283063E-13 <-- DLTA
 ------------------------------------------------------------------------------
 Cycle:     12
  WF centre and spread    1  (  -0.000000043739061,   0.000000051015029,   0.000000011295111 )   1.914942247728228
  WF centre and spread    2  (  -1.357773455342338,  -0.000000035425183,   1.357773444235536 )   1.914942260447480
  WF centre and spread    3  (  -0.000000022976994,   1.357773467034674,   1.357773498510572 )   1.914942321223400
  WF centre and spread    4  (  -1.357773474143370,   1.357773479759879,   0.000000011872064 )   1.914942198414072
  Sum of centres and spreads (  -2.715546996201763,   2.715546962384400,   2.715546965913282 )   7.659769027813178
 
     12    -0.124E-12     0.0000017240        7.6597690278       0.02  <-- CONV
        O_D=      0.0000000 O_OD=      0.5585031 O_TOT=      7.6597690 <-- SPRD
 Delta: O_D= -0.2815005E-15 O_OD= -0.1245670E-12 O_TOT= -0.1243450E-12 <-- DLTA
 ------------------------------------------------------------------------------
 Cycle:     13
  WF centre and spread    1  (  -0.000000043737392,   0.000000051016297,   0.000000011292394 )   1.914942247728768
  WF centre and spread    2  (  -1.357773455341518,  -0.000000035426013,   1.357773444234574 )   1.914942260438433
  WF centre and spread    3  (  -0.000000022978985,   1.357773467033734,   1.357773498511957 )   1.914942321225502
  WF centre and spread    4  (  -1.357773474144472,   1.357773479761171,   0.000000011875223 )   1.914942198420427
  Sum of centres and spreads (  -2.715546996202368,   2.715546962385189,   2.715546965914148 )   7.659769027813130
 
     13    -0.533E-13     0.0000016947        7.6597690278       0.03  <-- CONV
        O_D=      0.0000000 O_OD=      0.5585031 O_TOT=      7.6597690 <-- SPRD
 Delta: O_D= -0.1689561E-15 O_OD= -0.5306866E-13 O_TOT= -0.5329071E-13 <-- DLTA
 ------------------------------------------------------------------------------
 Cycle:     14
  WF centre and spread    1  (  -0.000000043734080,   0.000000051018813,   0.000000011287003 )   1.914942247729845
  WF centre and spread    2  (  -1.357773455339891,  -0.000000035427660,   1.357773444232665 )   1.914942260420479
  WF centre and spread    3  (  -0.000000022982935,   1.357773467031868,   1.357773498514706 )   1.914942321229676
  WF centre and spread    4  (  -1.357773474146660,   1.357773479763736,   0.000000011881494 )   1.914942198433036
  Sum of centres and spreads (  -2.715546996203567,   2.715546962386757,   2.715546965915868 )   7.659769027813034
 
     14    -0.105E-12     0.0000016820        7.6597690278       0.03  <-- CONV
        O_D=      0.0000000 O_OD=      0.5585031 O_TOT=      7.6597690 <-- SPRD
 Delta: O_D= -0.3230602E-15 O_OD= -0.1039169E-12 O_TOT= -0.1048051E-12 <-- DLTA
 ------------------------------------------------------------------------------
 Cycle:     15
  WF centre and spread    1  (  -0.000000043607551,   0.000000051114926,   0.000000011081030 )   1.914942247771115
  WF centre and spread    2  (  -1.357773455277736,  -0.000000035490588,   1.357773444159733 )   1.914942259734951
  WF centre and spread    3  (  -0.000000023133839,   1.357773466960580,   1.357773498619727 )   1.914942321389378
  WF centre and spread    4  (  -1.357773474230247,   1.357773479861724,   0.000000012121049 )   1.914942198914803
  Sum of centres and spreads (  -2.715546996249373,   2.715546962446643,   2.715546965981540 )   7.659769027810249
 
     15    -0.280E-11     0.0000016571        7.6597690278       0.03  <-- CONV
        O_D=      0.0000000 O_OD=      0.5585031 O_TOT=      7.6597690 <-- SPRD
 Delta: O_D= -0.3279395E-14 O_OD= -0.2796763E-11 O_TOT= -0.2798650E-11 <-- DLTA
 ------------------------------------------------------------------------------
 Cycle:     16
  WF centre and spread    1  (  -0.000000043604908,   0.000000051116950,   0.000000011076717 )   1.914942247771976
  WF centre and spread    2  (  -1.357773455276428,  -0.000000035491926,   1.357773444158197 )   1.914942259720669
  WF centre and spread    3  (  -0.000000023136988,   1.357773466959089,   1.357773498621930 )   1.914942321392717
  WF centre and spread    4  (  -1.357773474232000,   1.357773479863781,   0.000000012126064 )   1.914942198924846
  Sum of centres and spreads (  -2.715546996250324,   2.715546962447895,   2.715546965982909 )   7.659769027810210
 
     16    -0.258E-13     0.0000007690        7.6597690278       0.03  <-- CONV
        O_D=      0.0000000 O_OD=      0.5585031 O_TOT=      7.6597690 <-- SPRD
 Delta: O_D=  0.1366227E-16 O_OD= -0.2520206E-13 O_TOT= -0.2575717E-13 <-- DLTA
 ------------------------------------------------------------------------------
 Cycle:     17
  WF centre and spread    1  (  -0.000000043600749,   0.000000051120142,   0.000000011069926 )   1.914942247773327
  WF centre and spread    2  (  -1.357773455274367,  -0.000000035494040,   1.357773444155775 )   1.914942259698222
  WF centre and spread    3  (  -0.000000023141940,   1.357773466956743,   1.357773498625399 )   1.914942321397971
  WF centre and spread    4  (  -1.357773474234763,   1.357773479867020,   0.000000012133960 )   1.914942198940637
  Sum of centres and spreads (  -2.715546996251819,   2.715546962449864,   2.715546965985060 )   7.659769027810158
 
     17    -0.338E-13     0.0000007579        7.6597690278       0.03  <-- CONV
        O_D=      0.0000000 O_OD=      0.5585031 O_TOT=      7.6597690 <-- SPRD
 Delta: O_D= -0.1803404E-16 O_OD= -0.3375078E-13 O_TOT= -0.3375078E-13 <-- DLTA
 ------------------------------------------------------------------------------
 Cycle:     18
  WF centre and spread    1  (  -0.000000043595168,   0.000000051124430,   0.000000011060811 )   1.914942247775154
  WF centre and spread    2  (  -1.357773455271599,  -0.000000035496885,   1.357773444152521 )   1.914942259668127
  WF centre and spread    3  (  -0.000000023148584,   1.357773466953594,   1.357773498630056 )   1.914942321405030
  WF centre and spread    4  (  -1.357773474238472,   1.357773479871369,   0.000000012144558 )   1.914942198961826
  Sum of centres and spreads (  -2.715546996253823,   2.715546962452509,   2.715546965987946 )   7.659769027810139
 
     18    -0.426E-13     0.0000007426        7.6597690278       0.03  <-- CONV
        O_D=      0.0000000 O_OD=      0.5585031 O_TOT=      7.6597690 <-- SPRD
 Delta: O_D= -0.4731219E-16 O_OD= -0.4241052E-13 O_TOT= -0.4263256E-13 <-- DLTA
 ------------------------------------------------------------------------------
 Cycle:     19
  WF centre and spread    1  (  -0.000000043593583,   0.000000051125652,   0.000000011058219 )   1.914942247775670
  WF centre and spread    2  (  -1.357773455270810,  -0.000000035497698,   1.357773444151593 )   1.914942259659583
  WF centre and spread    3  (  -0.000000023150471,   1.357773466952699,   1.357773498631382 )   1.914942321407040
  WF centre and spread    4  (  -1.357773474239528,   1.357773479872607,   0.000000012147571 )   1.914942198967835
  Sum of centres and spreads (  -2.715546996254392,   2.715546962453259,   2.715546965988765 )   7.659769027810128
 
     19    -0.888E-14     0.0000007234        7.6597690278       0.03  <-- CONV
        O_D=      0.0000000 O_OD=      0.5585031 O_TOT=      7.6597690 <-- SPRD
 Delta: O_D= -0.2876608E-16 O_OD= -0.9769963E-14 O_TOT= -0.8881784E-14 <-- DLTA
 ------------------------------------------------------------------------------
 Cycle:     20
  WF centre and spread    1  (  -0.000000043590432,   0.000000051128080,   0.000000011053068 )   1.914942247776690
  WF centre and spread    2  (  -1.357773455269243,  -0.000000035499315,   1.357773444149751 )   1.914942259642602
  WF centre and spread    3  (  -0.000000023154220,   1.357773466950921,   1.357773498634016 )   1.914942321411019
  WF centre and spread    4  (  -1.357773474241625,   1.357773479875066,   0.000000012153559 )   1.914942198979780
  Sum of centres and spreads (  -2.715546996255521,   2.715546962454752,   2.715546965990393 )   7.659769027810093
 
     20    -0.204E-13     0.0000007190        7.6597690278       0.03  <-- CONV
        O_D=      0.0000000 O_OD=      0.5585031 O_TOT=      7.6597690 <-- SPRD
 Delta: O_D= -0.5507520E-16 O_OD= -0.1898481E-13 O_TOT= -0.2042810E-13 <-- DLTA
 ------------------------------------------------------------------------------

             <<<     Delta < 1.000E-12  over  5 iterations     >>>
             <<< Wannierisation convergence criteria satisfied >>>

 Final State
  WF centre and spread    1  (  -0.000000043590432,   0.000000051128080,   0.000000011053068 )   1.914942247776690
  WF centre and spread    2  (  -1.357773455269243,  -0.000000035499315,   1.357773444149751 )   1.914942259642602
  WF centre and spread    3  (  -0.000000023154220,   1.357773466950921,   1.357773498634016 )   1.914942321411019
  WF centre and spread    4  (  -1.357773474241625,   1.357773479875066,   0.000000012153559 )   1.914942198979780
  Sum of centres and spreads (  -2.715546996255521,   2.715546962454752,   2.715546965990393 )   7.659769027810093
 
         Spreads (Ang^2)       Omega I      =     7.101265911
        ================       Omega D      =     0.000000000
                               Omega OD     =     0.558503117
    Final Spread (Ang^2)       Omega Total  =     7.659769028
 ------------------------------------------------------------------------------
 Time for wannierise            0.037 (sec)

 Writing checkpoint file si.chk... done

 Time for plotting              0.000 (sec)
 Total Execution Time           0.499 (sec)

 *===========================================================================*
 |                             TIMING INFORMATION                            |
 *===========================================================================*
 |    Tag                                                Ncalls      Time (s)|
 |---------------------------------------------------------------------------|
 |kmesh: get                                        :         1         0.222|
 |overlap: allocate                                 :         1         0.000|
 |overlap: read                                     :         1         0.151|
 |wann: main                                        :         1         0.037|
 |plot: main                                        :         1         0.000|
 *---------------------------------------------------------------------------*
 
 All done: wannier90 exiting
