 
             +---------------------------------------------------+
             |                                                   |
             |                   WANNIER90                       |
             |                                                   |
             +---------------------------------------------------+
             |                                                   |
             |        Welcome to the Maximally-Localized         |
             |        Generalized Wannier Functions code         |
             |            http://www.wannier.org                 |
             |                                                   |
             |                                                   |
             |  Wannier90 Developer Group:                       |
             |    Giovanni Pizzi    (EPFL)                       |
             |    Valerio Vitale    (Cambridge)                  |
             |    David Vanderbilt  (Rutgers University)         |
             |    Nicola Marzari    (EPFL)                       |
             |    Ivo Souza         (Universidad del Pais Vasco) |
             |    Arash A. Mostofi  (Imperial College London)    |
             |    Jonathan R. Yates (University of Oxford)       |
             |                                                   |
             |  For the full list of Wannier90 3.x authors,      |
             |  please check the code documentation and the      |
             |  README on the GitHub page of the code            |
             |                                                   |
             |                                                   |
             |  Please cite                                      |
             |                                                   |
             |  [ref] "Wannier90 as a community code:            |
             |        new features and applications",            |
             |        G. Pizzi et al., J. Phys. Cond. Matt. 32,  |
             |        165902 (2020).                             |
             |        http://doi.org/10.1088/1361-648X/ab51ff    |
             |                                                   |
             |  in any publications arising from the use of      |
             |  this code. For the method please cite            |
             |                                                   |
             |  [ref] "Maximally Localized Generalised Wannier   |
             |         Functions for Composite Energy Bands"     |
             |         N. Marzari and D. Vanderbilt              |
             |         Phys. Rev. B 56 12847 (1997)              |
             |                                                   |
             |  [ref] "Maximally Localized Wannier Functions     |
             |         for Entangled Energy Bands"               |
             |         I. Souza, N. Marzari and D. Vanderbilt    |
             |         Phys. Rev. B 65 035109 (2001)             |
             |                                                   |
             |                                                   |
             | Copyright (c) 1996-2020                           |
             |        The Wannier90 Developer Group and          |
             |        individual contributors                    |
             |                                                   |
             |      Release: 3.1.0        5th March    2020      |
             |                                                   |
             | This program is free software; you can            |
             | redistribute it and/or modify it under the terms  |
             | of the GNU General Public License as published by |
             | the Free Software Foundation; either version 2 of |
             | the License, or (at your option) any later version|
             |                                                   |
             | This program is distributed in the hope that it   |
             | will be useful, but WITHOUT ANY WARRANTY; without |
             | even the implied warranty of MERCHANTABILITY or   |
             | FITNESS FOR A PARTICULAR PURPOSE. See the GNU     |
             | General Public License for more details.          |
             |                                                   |
             | You should have received a copy of the GNU General|
             | Public License along with this program; if not,   |
             | write to the Free Software Foundation, Inc.,      |
             | 675 Mass Ave, Cambridge, MA 02139, USA.           |
             |                                                   |
             +---------------------------------------------------+
             |    Execution started on 14Jun2022 at 23:31:10     |
             +---------------------------------------------------+
 
 ******************************************************************************
 * -> Using CODATA 2006 constant values                                       *
 *    (http://physics.nist.gov/cuu/Constants/index.html)                      *
 * -> Using Bohr value from CODATA                                            *
 ******************************************************************************
 

 Running in parallel on  20 CPUs

 
                                    ------
                                    SYSTEM
                                    ------
 
                              Lattice Vectors (Ang)
                    a_1    -2.715547   0.000000   2.715547
                    a_2     0.000000   2.715547   2.715547
                    a_3    -2.715547   2.715547   0.000000
 
                   Unit Cell Volume:      40.04995  (Ang^3)
 
                        Reciprocal-Space Vectors (Ang^-1)
                    b_1    -1.156891  -1.156891   1.156891
                    b_2     1.156891   1.156891   1.156891
                    b_3    -1.156891   1.156891  -1.156891
  
 *----------------------------------------------------------------------------*
 |   Site       Fractional Coordinate          Cartesian Coordinate (Ang)     |
 +----------------------------------------------------------------------------+
 | Si   1   0.12500   0.12500   0.12500   |   -0.67889   0.67889   0.67889    |
 | Si   2  -0.12500  -0.12500  -0.12500   |    0.67889  -0.67889  -0.67889    |
 *----------------------------------------------------------------------------*
                                ------------
                                K-POINT GRID
                                ------------
  
             Grid size =  6 x  6 x  6      Total points =  216
  
  
 *---------------------------------- MAIN ------------------------------------*
 |  Number of Wannier Functions               :                 4             |
 |  Number of Objective Wannier Functions     :                 4             |
 |  Number of input Bloch states              :                 4             |
 |  Output verbosity (1=low, 5=high)          :                 1             |
 |  Timing Level (1=low, 5=high)              :                 1             |
 |  Optimisation (0=memory, 3=speed)          :                 3             |
 |  Length Unit                               :               Ang             |
 |  Post-processing setup (write *.nnkp)      :                 F             |
 |  Using Gamma-only branch of algorithms     :                 F             |
 *----------------------------------------------------------------------------*
 *------------------------------- WANNIERISE ---------------------------------*
 |  Total number of iterations                :              2000             |
 |  Number of CG steps before reset           :                 5             |
 |  Trial step length for line search         :             2.000             |
 |  Convergence tolerence                     :         0.100E-09             |
 |  Convergence window                        :                 5             |
 |  Iterations between writing output         :                 1             |
 |  Iterations between backing up to disk     :               100             |
 |  Write r^2_nm to file                      :                 F             |
 |  Write xyz WF centres to file              :                 F             |
 |  Write on-site energies <0n|H|0n> to file  :                 F             |
 |  Use guiding centre to control phases      :                 T             |
 |  Use phases for initial projections        :                 F             |
 |  Iterations before starting guiding centres:                 0             |
 |  Iterations between using guiding centres  :                 1             |
 *----------------------------------------------------------------------------*
 Time to read parameters        0.043 (sec)

 *---------------------------------- K-MESH ----------------------------------*
 +----------------------------------------------------------------------------+
 |                    Distance to Nearest-Neighbour Shells                    |
 |                    ------------------------------------                    |
 |          Shell             Distance (Ang^-1)          Multiplicity         |
 |          -----             -----------------          ------------         |
 |             1                   0.333966                      8            |
 |             2                   0.385630                      6            |
 |             3                   0.545364                     12            |
 |             4                   0.639496                     24            |
 |             5                   0.667932                      8            |
 |             6                   0.771261                      6            |
 |             7                   0.840462                     24            |
 |             8                   0.862296                     24            |
 |             9                   0.944598                     24            |
 |            10                   1.001897                     32            |
 |            11                   1.090728                     12            |
 |            12                   1.140710                     48            |
 |            13                   1.156891                     30            |
 |            14                   1.219471                     24            |
 |            15                   1.264374                     24            |
 |            16                   1.278991                     24            |
 |            17                   1.335863                      8            |
 |            18                   1.376976                     48            |
 |            19                   1.390410                     24            |
 |            20                   1.442897                     48            |
 |            21                   1.481042                     72            |
 |            22                   1.542522                      6            |
 |            23                   1.578261                     24            |
 |            24                   1.589995                     48            |
 |            25                   1.636091                     36            |
 |            26                   1.669829                     56            |
 |            27                   1.680924                     24            |
 |            28                   1.724592                     24            |
 |            29                   1.756630                     72            |
 |            30                   1.767181                     48            |
 |            31                   1.808767                     24            |
 |            32                   1.839340                     48            |
 |            33                   1.889196                     24            |
 |            34                   1.918487                     72            |
 |            35                   1.928152                     30            |
 |            36                   1.966337                     72            |
 +----------------------------------------------------------------------------+
 | The b-vectors are chosen automatically                                     |
 | The following shells are used:   1                                         |
 +----------------------------------------------------------------------------+
 |                        Shell   # Nearest-Neighbours                        |
 |                        -----   --------------------                        |
 |                          1               8                                 |
 +----------------------------------------------------------------------------+
 | Completeness relation is fully satisfied [Eq. (B1), PRB 56, 12847 (1997)]  |
 | Completeness relations for higher-order are fully satisfied                |
 +----------------------------------------------------------------------------+
 |                  b_k Vectors (Ang^-1) and Weights (Ang^2)                  |
 |                  ----------------------------------------                  |
 |            No.         b_k(x)      b_k(y)      b_k(z)        w_b           |
 |            ---        --------------------------------     --------        |
 |             1        -0.192815    0.192815   -0.192815     3.362230        |
 |             2         0.192815    0.192815    0.192815     3.362230        |
 |             3        -0.192815   -0.192815    0.192815     3.362230        |
 |             4        -0.192815    0.192815    0.192815     3.362230        |
 |             5         0.192815   -0.192815    0.192815     3.362230        |
 |             6        -0.192815   -0.192815   -0.192815     3.362230        |
 |             7         0.192815    0.192815   -0.192815     3.362230        |
 |             8         0.192815   -0.192815   -0.192815     3.362230        |
 +----------------------------------------------------------------------------+
 |                           b_k Directions (Ang^-1)                          |
 |                           -----------------------                          |
 |            No.           x           y           z                         |
 |            ---        --------------------------------                     |
 |             1        -0.192815    0.192815   -0.192815                     |
 |             2         0.192815    0.192815    0.192815                     |
 |             3        -0.192815   -0.192815    0.192815                     |
 |             4        -0.192815    0.192815    0.192815                     |
 +----------------------------------------------------------------------------+
  
 Time to get kmesh              0.148 (sec)
 *============================================================================*
 |                              MEMORY ESTIMATE                               |
 |         Maximum RAM allocated during each phase of the calculation         |
 *============================================================================*
 |                            Wannierise:            1.40 Mb                  |
 |                          plot_wannier:            1.40 Mb                  |
 *----------------------------------------------------------------------------*
  
 Starting a new Wannier90 calculation ...


 Reading overlaps from si.mmn    :  Created on 14Jun2022 at 23:31: 9

 Reading projections from si.amn :  Created on 14Jun2022 at 23:31: 7

 Time to read overlaps          0.040 (sec)

 Writing checkpoint file si.chk... done

 
 *------------------------------- WANNIERISE ---------------------------------*
 +--------------------------------------------------------------------+<-- CONV
 | Iter  Delta Spread     RMS Gradient      Spread (Ang^2)      Time  |<-- CONV
 +--------------------------------------------------------------------+<-- CONV
 
 ------------------------------------------------------------------------------
 Initial State
  WF centre and spread    1  (  -0.000000051184847,   0.000000047216987,   0.000000021319296 )   1.934027772294945
  WF centre and spread    2  (  -1.357773455928676,  -0.000000033936177,   1.357773443148921 )   1.934027794355982
  WF centre and spread    3  (  -0.000000018920307,   1.357773469930315,   1.357773495357232 )   1.934027827106826
  WF centre and spread    4  (  -1.357773469725397,   1.357773476549067,   0.000000005835030 )   1.934027700254801
  Sum of centres and spreads (  -2.715546995759226,   2.715546959760192,   2.715546965660478 )   7.736111094012553
 
      0     0.774E+01     0.0000000000        7.7361110940       0.00  <-- CONV
        O_D=      0.0000000 O_OD=      0.6348452 O_TOT=      7.7361111 <-- SPRD
 ------------------------------------------------------------------------------
 Cycle:      1
  WF centre and spread    1  (  -0.000000049560807,   0.000000048135027,   0.000000018897562 )   1.916846162913981
  WF centre and spread    2  (  -1.357773455447493,  -0.000000034166659,   1.357773444674317 )   1.916846174311722
  WF centre and spread    3  (  -0.000000020203881,   1.357773469949399,   1.357773494821242 )   1.916846206403873
  WF centre and spread    4  (  -1.357773472125706,   1.357773477654618,   0.000000006594795 )   1.916846079485933
  Sum of centres and spreads (  -2.715546997337886,   2.715546961572385,   2.715546964987916 )   7.667384623115511
 
      1    -0.687E-01     0.1872986134        7.6673846231       0.00  <-- CONV
        O_D=      0.0000000 O_OD=      0.5661187 O_TOT=      7.6673846 <-- SPRD
 Delta: O_D=  0.4657486E-12 O_OD= -0.6872647E-01 O_TOT= -0.6872647E-01 <-- DLTA
 ------------------------------------------------------------------------------
 Cycle:      2
  WF centre and spread    1  (  -0.000000048827737,   0.000000049048214,   0.000000018136197 )   1.915127507939480
  WF centre and spread    2  (  -1.357773455540769,  -0.000000034475385,   1.357773444816677 )   1.915127516397384
  WF centre and spread    3  (  -0.000000021440908,   1.357773469623783,   1.357773495416116 )   1.915127551976696
  WF centre and spread    4  (  -1.357773472754441,   1.357773478059760,   0.000000007419392 )   1.915127427513214
  Sum of centres and spreads (  -2.715546998563855,   2.715546962256372,   2.715546965788381 )   7.660510003826776
 
      2    -0.687E-02     0.0668238903        7.6605100038       0.00  <-- CONV
        O_D=      0.0000000 O_OD=      0.5592441 O_TOT=      7.6605100 <-- SPRD
 Delta: O_D=  0.2736910E-12 O_OD= -0.6874619E-02 O_TOT= -0.6874619E-02 <-- DLTA
 ------------------------------------------------------------------------------
 Cycle:      3
  WF centre and spread    1  (  -0.000000048415942,   0.000000049501770,   0.000000017368855 )   1.914963248223372
  WF centre and spread    2  (  -1.357773455311194,  -0.000000034499232,   1.357773444721264 )   1.914963255733283
  WF centre and spread    3  (  -0.000000022033742,   1.357773469171275,   1.357773495781055 )   1.914963297204169
  WF centre and spread    4  (  -1.357773473030683,   1.357773478200234,   0.000000008051325 )   1.914963170835367
  Sum of centres and spreads (  -2.715546998791561,   2.715546962374047,   2.715546965922498 )   7.659852971996189
 
      3    -0.657E-03     0.0247744702        7.6598529720       0.00  <-- CONV
        O_D=      0.0000000 O_OD=      0.5585870 O_TOT=      7.6598530 <-- SPRD
 Delta: O_D= -0.1109481E-11 O_OD= -0.6570318E-03 O_TOT= -0.6570318E-03 <-- DLTA
 ------------------------------------------------------------------------------
 Cycle:      4
  WF centre and spread    1  (  -0.000000047967283,   0.000000049647694,   0.000000016857329 )   1.914943325875308
  WF centre and spread    2  (  -1.357773455063395,  -0.000000034618424,   1.357773444529015 )   1.914943331884655
  WF centre and spread    3  (  -0.000000022404277,   1.357773469042844,   1.357773495963837 )   1.914943376172120
  WF centre and spread    4  (  -1.357773473202009,   1.357773478404330,   0.000000008739917 )   1.914943250703758
  Sum of centres and spreads (  -2.715546998636964,   2.715546962476444,   2.715546966090097 )   7.659773284635840
 
      4    -0.797E-04     0.0089600766        7.6597732846       0.00  <-- CONV
        O_D=      0.0000000 O_OD=      0.5585074 O_TOT=      7.6597733 <-- SPRD
 Delta: O_D= -0.4813367E-12 O_OD= -0.7968736E-04 O_TOT= -0.7968736E-04 <-- DLTA
 ------------------------------------------------------------------------------
 Cycle:      5
  WF centre and spread    1  (  -0.000000047625714,   0.000000049837533,   0.000000016333068 )   1.914942344130720
  WF centre and spread    2  (  -1.357773454932332,  -0.000000034687022,   1.357773444376067 )   1.914942348604883
  WF centre and spread    3  (  -0.000000022838943,   1.357773468851976,   1.357773496181484 )   1.914942396122016
  WF centre and spread    4  (  -1.357773473407751,   1.357773478612118,   0.000000009321329 )   1.914942270845509
  Sum of centres and spreads (  -2.715546998804739,   2.715546962614605,   2.715546966211948 )   7.659769359703130
 
      5    -0.392E-05     0.0018888591        7.6597693597       0.01  <-- CONV
        O_D=      0.0000000 O_OD=      0.5585034 O_TOT=      7.6597694 <-- SPRD
 Delta: O_D= -0.3645204E-13 O_OD= -0.3924933E-05 O_TOT= -0.3924933E-05 <-- DLTA
 ------------------------------------------------------------------------------
 Cycle:      6
  WF centre and spread    1  (  -0.000000047298900,   0.000000050029558,   0.000000015858732 )   1.914942276712065
  WF centre and spread    2  (  -1.357773454766088,  -0.000000034807925,   1.357773444231026 )   1.914942279808750
  WF centre and spread    3  (  -0.000000023211129,   1.357773468702750,   1.357773496395222 )   1.914942330385777
  WF centre and spread    4  (  -1.357773473587525,   1.357773478835447,   0.000000009914667 )   1.914942205202574
  Sum of centres and spreads (  -2.715546998863642,   2.715546962759829,   2.715546966399647 )   7.659769092109167
 
      6    -0.268E-06     0.0004882176        7.6597690921       0.01  <-- CONV
        O_D=      0.0000000 O_OD=      0.5585032 O_TOT=      7.6597691 <-- SPRD
 Delta: O_D= -0.1371143E-13 O_OD= -0.2675939E-06 O_TOT= -0.2675939E-06 <-- DLTA
 ------------------------------------------------------------------------------
 Cycle:      7
  WF centre and spread    1  (  -0.000000047050918,   0.000000050192393,   0.000000015469925 )   1.914942268021391
  WF centre and spread    2  (  -1.357773454659854,  -0.000000034883361,   1.357773444116759 )   1.914942270014430
  WF centre and spread    3  (  -0.000000023521152,   1.357773468569268,   1.357773496574130 )   1.914942323053869
  WF centre and spread    4  (  -1.357773473745742,   1.357773479001679,   0.000000010356349 )   1.914942197883676
  Sum of centres and spreads (  -2.715546998977666,   2.715546962879978,   2.715546966517163 )   7.659769058973367
 
      7    -0.331E-07     0.0001807379        7.6597690589       0.01  <-- CONV
        O_D=      0.0000000 O_OD=      0.5585031 O_TOT=      7.6597691 <-- SPRD
 Delta: O_D= -0.1297121E-13 O_OD= -0.3313578E-07 O_TOT= -0.3313579E-07 <-- DLTA
 ------------------------------------------------------------------------------
 Cycle:      8
  WF centre and spread    1  (  -0.000000046697033,   0.000000050417712,   0.000000014940043 )   1.914942265716849
  WF centre and spread    2  (  -1.357773454488598,  -0.000000035021681,   1.357773443950228 )   1.914942266223291
  WF centre and spread    3  (  -0.000000023933501,   1.357773468400387,   1.357773496819621 )   1.914942322617593
  WF centre and spread    4  (  -1.357773473959650,   1.357773479249110,   0.000000010993129 )   1.914942197487790
  Sum of centres and spreads (  -2.715546999078783,   2.715546963045528,   2.715546966703021 )   7.659769052045522
 
      8    -0.693E-08     0.0000732701        7.6597690520       0.01  <-- CONV
        O_D=      0.0000000 O_OD=      0.5585031 O_TOT=      7.6597691 <-- SPRD
 Delta: O_D=  0.4643271E-14 O_OD= -0.6927841E-08 O_TOT= -0.6927837E-08 <-- DLTA
 ------------------------------------------------------------------------------
 Cycle:      9
  WF centre and spread    1  (  -0.000000046455763,   0.000000050580448,   0.000000014563520 )   1.914942265218516
  WF centre and spread    2  (  -1.357773454377603,  -0.000000035111387,   1.357773443833848 )   1.914942264684320
  WF centre and spread    3  (  -0.000000024228250,   1.357773468273926,   1.357773497000129 )   1.914942323445997
  WF centre and spread    4  (  -1.357773474115323,   1.357773479418534,   0.000000011429080 )   1.914942198300808
  Sum of centres and spreads (  -2.715546999176939,   2.715546963161521,   2.715546966826578 )   7.659769051649642
 
      9    -0.396E-09     0.0000191292        7.6597690516       0.01  <-- CONV
        O_D=      0.0000000 O_OD=      0.5585031 O_TOT=      7.6597691 <-- SPRD
 Delta: O_D= -0.4542281E-14 O_OD= -0.3958724E-09 O_TOT= -0.3958771E-09 <-- DLTA
 ------------------------------------------------------------------------------
 Cycle:     10
  WF centre and spread    1  (  -0.000000046329768,   0.000000050666104,   0.000000014370065 )   1.914942265006113
  WF centre and spread    2  (  -1.357773454315258,  -0.000000035166211,   1.357773443770792 )   1.914942263950272
  WF centre and spread    3  (  -0.000000024376012,   1.357773468212153,   1.357773497092609 )   1.914942323911583
  WF centre and spread    4  (  -1.357773474195706,   1.357773479509523,   0.000000011658577 )   1.914942198762287
  Sum of centres and spreads (  -2.715546999216744,   2.715546963221569,   2.715546966892042 )   7.659769051630256
 
     10    -0.194E-10     0.0000047665        7.6597690516       0.01  <-- CONV
        O_D=      0.0000000 O_OD=      0.5585031 O_TOT=      7.6597691 <-- SPRD
 Delta: O_D= -0.6120929E-13 O_OD= -0.1932432E-10 O_TOT= -0.1938538E-10 <-- DLTA
 ------------------------------------------------------------------------------
 Cycle:     11
  WF centre and spread    1  (  -0.000000046327671,   0.000000050667548,   0.000000014366816 )   1.914942265002607
  WF centre and spread    2  (  -1.357773454314236,  -0.000000035167113,   1.357773443769737 )   1.914942263938050
  WF centre and spread    3  (  -0.000000024378498,   1.357773468211098,   1.357773497094181 )   1.914942323919484
  WF centre and spread    4  (  -1.357773474197060,   1.357773479511035,   0.000000011662399 )   1.914942198769994
  Sum of centres and spreads (  -2.715546999217465,   2.715546963222569,   2.715546966893133 )   7.659769051630136
 
     11    -0.109E-12     0.0000020598        7.6597690516       0.01  <-- CONV
        O_D=      0.0000000 O_OD=      0.5585031 O_TOT=      7.6597691 <-- SPRD
 Delta: O_D=  0.9957912E-17 O_OD= -0.1092459E-12 O_TOT= -0.1092459E-12 <-- DLTA
 ------------------------------------------------------------------------------
 Cycle:     12
  WF centre and spread    1  (  -0.000000046126035,   0.000000050806657,   0.000000014054121 )   1.914942264667268
  WF centre and spread    2  (  -1.357773454216166,  -0.000000035253742,   1.357773443668255 )   1.914942262763669
  WF centre and spread    3  (  -0.000000024617763,   1.357773468109383,   1.357773497245691 )   1.914942324681821
  WF centre and spread    4  (  -1.357773474327379,   1.357773479656419,   0.000000012029891 )   1.914942199512446
  Sum of centres and spreads (  -2.715546999287343,   2.715546963318717,   2.715546966997958 )   7.659769051625204
 
     12    -0.493E-11     0.0000020375        7.6597690516       0.01  <-- CONV
        O_D=      0.0000000 O_OD=      0.5585031 O_TOT=      7.6597691 <-- SPRD
 Delta: O_D= -0.6997082E-15 O_OD= -0.4926615E-11 O_TOT= -0.4926726E-11 <-- DLTA
 ------------------------------------------------------------------------------
 Cycle:     13
  WF centre and spread    1  (  -0.000000046124420,   0.000000050807798,   0.000000014051590 )   1.914942264664576
  WF centre and spread    2  (  -1.357773454215380,  -0.000000035254454,   1.357773443667426 )   1.914942262754280
  WF centre and spread    3  (  -0.000000024619690,   1.357773468108553,   1.357773497246931 )   1.914942324687980
  WF centre and spread    4  (  -1.357773474328440,   1.357773479657591,   0.000000012032846 )   1.914942199518360
  Sum of centres and spreads (  -2.715546999287930,   2.715546963319488,   2.715546966998793 )   7.659769051625197
 
     13    -0.115E-13     0.0000007864        7.6597690516       0.01  <-- CONV
        O_D=      0.0000000 O_OD=      0.5585031 O_TOT=      7.6597691 <-- SPRD
 Delta: O_D= -0.1016161E-16 O_OD= -0.1154632E-13 O_TOT= -0.1154632E-13 <-- DLTA
 ------------------------------------------------------------------------------
 Cycle:     14
  WF centre and spread    1  (  -0.000000046121228,   0.000000050810056,   0.000000014046585 )   1.914942264659252
  WF centre and spread    2  (  -1.357773454213824,  -0.000000035255864,   1.357773443665787 )   1.914942262735718
  WF centre and spread    3  (  -0.000000024623499,   1.357773468106912,   1.357773497249381 )   1.914942324700152
  WF centre and spread    4  (  -1.357773474330537,   1.357773479659909,   0.000000012038690 )   1.914942199530055
  Sum of centres and spreads (  -2.715546999289087,   2.715546963321013,   2.715546967000443 )   7.659769051625176
 
     14    -0.222E-13     0.0000007776        7.6597690516       0.01  <-- CONV
        O_D=      0.0000000 O_OD=      0.5585031 O_TOT=      7.6597691 <-- SPRD
 Delta: O_D= -0.1941279E-16 O_OD= -0.2209344E-13 O_TOT= -0.2220446E-13 <-- DLTA
 ------------------------------------------------------------------------------

             <<<     Delta < 1.000E-10  over  5 iterations     >>>
             <<< Wannierisation convergence criteria satisfied >>>

 Final State
  WF centre and spread    1  (  -0.000000046121228,   0.000000050810056,   0.000000014046585 )   1.914942264659252
  WF centre and spread    2  (  -1.357773454213824,  -0.000000035255864,   1.357773443665787 )   1.914942262735718
  WF centre and spread    3  (  -0.000000024623499,   1.357773468106912,   1.357773497249381 )   1.914942324700152
  WF centre and spread    4  (  -1.357773474330537,   1.357773479659909,   0.000000012038690 )   1.914942199530055
  Sum of centres and spreads (  -2.715546999289087,   2.715546963321013,   2.715546967000443 )   7.659769051625176
 
         Spreads (Ang^2)       Omega I      =     7.101265930
        ================       Omega D      =     0.000000000
                               Omega OD     =     0.558503121
    Final Spread (Ang^2)       Omega Total  =     7.659769052
 ------------------------------------------------------------------------------
 Time for wannierise            0.015 (sec)

 Writing checkpoint file si.chk... done

 Time for plotting              0.000 (sec)
 Total Execution Time           0.247 (sec)

 *===========================================================================*
 |                             TIMING INFORMATION                            |
 *===========================================================================*
 |    Tag                                                Ncalls      Time (s)|
 |---------------------------------------------------------------------------|
 |kmesh: get                                        :         1         0.148|
 |overlap: allocate                                 :         1         0.000|
 |overlap: read                                     :         1         0.039|
 |wann: main                                        :         1         0.015|
 |plot: main                                        :         1         0.000|
 *---------------------------------------------------------------------------*
 
 All done: wannier90 exiting
