 
             +---------------------------------------------------+
             |                                                   |
             |                   WANNIER90                       |
             |                                                   |
             +---------------------------------------------------+
             |                                                   |
             |        Welcome to the Maximally-Localized         |
             |        Generalized Wannier Functions code         |
             |            http://www.wannier.org                 |
             |                                                   |
             |                                                   |
             |  Wannier90 Developer Group:                       |
             |    Giovanni Pizzi    (EPFL)                       |
             |    Valerio Vitale    (Cambridge)                  |
             |    David Vanderbilt  (Rutgers University)         |
             |    Nicola Marzari    (EPFL)                       |
             |    Ivo Souza         (Universidad del Pais Vasco) |
             |    Arash A. Mostofi  (Imperial College London)    |
             |    Jonathan R. Yates (University of Oxford)       |
             |                                                   |
             |  For the full list of Wannier90 3.x authors,      |
             |  please check the code documentation and the      |
             |  README on the GitHub page of the code            |
             |                                                   |
             |                                                   |
             |  Please cite                                      |
             |                                                   |
             |  [ref] "Wannier90 as a community code:            |
             |        new features and applications",            |
             |        G. Pizzi et al., J. Phys. Cond. Matt. 32,  |
             |        165902 (2020).                             |
             |        http://doi.org/10.1088/1361-648X/ab51ff    |
             |                                                   |
             |  in any publications arising from the use of      |
             |  this code. For the method please cite            |
             |                                                   |
             |  [ref] "Maximally Localized Generalised Wannier   |
             |         Functions for Composite Energy Bands"     |
             |         N. Marzari and D. Vanderbilt              |
             |         Phys. Rev. B 56 12847 (1997)              |
             |                                                   |
             |  [ref] "Maximally Localized Wannier Functions     |
             |         for Entangled Energy Bands"               |
             |         I. Souza, N. Marzari and D. Vanderbilt    |
             |         Phys. Rev. B 65 035109 (2001)             |
             |                                                   |
             |                                                   |
             | Copyright (c) 1996-2020                           |
             |        The Wannier90 Developer Group and          |
             |        individual contributors                    |
             |                                                   |
             |      Release: 3.1.0        5th March    2020      |
             |                                                   |
             | This program is free software; you can            |
             | redistribute it and/or modify it under the terms  |
             | of the GNU General Public License as published by |
             | the Free Software Foundation; either version 2 of |
             | the License, or (at your option) any later version|
             |                                                   |
             | This program is distributed in the hope that it   |
             | will be useful, but WITHOUT ANY WARRANTY; without |
             | even the implied warranty of MERCHANTABILITY or   |
             | FITNESS FOR A PARTICULAR PURPOSE. See the GNU     |
             | General Public License for more details.          |
             |                                                   |
             | You should have received a copy of the GNU General|
             | Public License along with this program; if not,   |
             | write to the Free Software Foundation, Inc.,      |
             | 675 Mass Ave, Cambridge, MA 02139, USA.           |
             |                                                   |
             +---------------------------------------------------+
             |    Execution started on 30Jul2022 at 02:39:12     |
             +---------------------------------------------------+
 
 ******************************************************************************
 * -> Using CODATA 2010 constant values                                       *
 *    (http://physics.nist.gov/cuu/Constants/index.html)                      *
 * -> Using Bohr value from CODATA                                            *
 ******************************************************************************
 

 Running in serial (with parallel executable)
 
                                    ------
                                    SYSTEM
                                    ------
 
                              Lattice Vectors (Ang)
                    a_1    -2.715547   0.000000   2.715547
                    a_2     0.000000   2.715547   2.715547
                    a_3    -2.715547   2.715547   0.000000
 
                   Unit Cell Volume:      40.04995  (Ang^3)
 
                        Reciprocal-Space Vectors (Ang^-1)
                    b_1    -1.156891  -1.156891   1.156891
                    b_2     1.156891   1.156891   1.156891
                    b_3    -1.156891   1.156891  -1.156891
  
 *----------------------------------------------------------------------------*
 |   Site       Fractional Coordinate          Cartesian Coordinate (Ang)     |
 +----------------------------------------------------------------------------+
 | Si   1   0.12500   0.12500   0.12500   |   -0.67889   0.67889   0.67889    |
 | Si   2  -0.12500  -0.12500  -0.12500   |    0.67889  -0.67889  -0.67889    |
 *----------------------------------------------------------------------------*
                                ------------
                                K-POINT GRID
                                ------------
  
             Grid size =  6 x  6 x  6      Total points =  216
  
  
 *---------------------------------- MAIN ------------------------------------*
 |  Number of Wannier Functions               :                 4             |
 |  Number of Objective Wannier Functions     :                 4             |
 |  Number of input Bloch states              :                 4             |
 |  Output verbosity (1=low, 5=high)          :                 1             |
 |  Timing Level (1=low, 5=high)              :                 1             |
 |  Optimisation (0=memory, 3=speed)          :                 3             |
 |  Length Unit                               :               Ang             |
 |  Post-processing setup (write *.nnkp)      :                 F             |
 |  Using Gamma-only branch of algorithms     :                 F             |
 *----------------------------------------------------------------------------*
 *------------------------------- WANNIERISE ---------------------------------*
 |  Total number of iterations                :              2000             |
 |  Number of CG steps before reset           :                 5             |
 |  Trial step length for line search         :             2.000             |
 |  Convergence tolerence                     :         0.100E-11             |
 |  Convergence window                        :                 5             |
 |  Iterations between writing output         :                 1             |
 |  Iterations between backing up to disk     :               100             |
 |  Write r^2_nm to file                      :                 F             |
 |  Write xyz WF centres to file              :                 F             |
 |  Write on-site energies <0n|H|0n> to file  :                 F             |
 |  Use guiding centre to control phases      :                 T             |
 |  Use phases for initial projections        :                 F             |
 |  Iterations before starting guiding centres:                 0             |
 |  Iterations between using guiding centres  :                 1             |
 *----------------------------------------------------------------------------*
 Time to read parameters        0.042 (sec)

 *---------------------------------- K-MESH ----------------------------------*
 +----------------------------------------------------------------------------+
 |                    Distance to Nearest-Neighbour Shells                    |
 |                    ------------------------------------                    |
 |          Shell             Distance (Ang^-1)          Multiplicity         |
 |          -----             -----------------          ------------         |
 |             1                   0.333966                      8            |
 |             2                   0.385630                      6            |
 |             3                   0.545364                     12            |
 |             4                   0.639496                     24            |
 |             5                   0.667932                      8            |
 |             6                   0.771261                      6            |
 |             7                   0.840462                     24            |
 |             8                   0.862296                     24            |
 |             9                   0.944598                     24            |
 |            10                   1.001897                     32            |
 |            11                   1.090728                     12            |
 |            12                   1.140710                     48            |
 |            13                   1.156891                     30            |
 |            14                   1.219471                     24            |
 |            15                   1.264374                     24            |
 |            16                   1.278991                     24            |
 |            17                   1.335863                      8            |
 |            18                   1.376976                     48            |
 |            19                   1.390410                     24            |
 |            20                   1.442897                     48            |
 |            21                   1.481042                     72            |
 |            22                   1.542522                      6            |
 |            23                   1.578261                     24            |
 |            24                   1.589995                     48            |
 |            25                   1.636091                     36            |
 |            26                   1.669829                     56            |
 |            27                   1.680924                     24            |
 |            28                   1.724592                     24            |
 |            29                   1.756630                     72            |
 |            30                   1.767181                     48            |
 |            31                   1.808767                     24            |
 |            32                   1.839340                     48            |
 |            33                   1.889196                     24            |
 |            34                   1.918487                     72            |
 |            35                   1.928152                     30            |
 |            36                   1.966337                     72            |
 +----------------------------------------------------------------------------+
 | The b-vectors are chosen automatically                                     |
 | The following shells are used:   1                                         |
 +----------------------------------------------------------------------------+
 |                        Shell   # Nearest-Neighbours                        |
 |                        -----   --------------------                        |
 |                          1               8                                 |
 +----------------------------------------------------------------------------+
 | Completeness relation is fully satisfied [Eq. (B1), PRB 56, 12847 (1997)]  |
 | Completeness relations for higher-order are fully satisfied                |
 +----------------------------------------------------------------------------+
 |                  b_k Vectors (Ang^-1) and Weights (Ang^2)                  |
 |                  ----------------------------------------                  |
 |            No.         b_k(x)      b_k(y)      b_k(z)        w_b           |
 |            ---        --------------------------------     --------        |
 |             1        -0.192815    0.192815   -0.192815     3.362230        |
 |             2         0.192815    0.192815    0.192815     3.362230        |
 |             3        -0.192815   -0.192815    0.192815     3.362230        |
 |             4        -0.192815    0.192815    0.192815     3.362230        |
 |             5         0.192815   -0.192815    0.192815     3.362230        |
 |             6        -0.192815   -0.192815   -0.192815     3.362230        |
 |             7         0.192815    0.192815   -0.192815     3.362230        |
 |             8         0.192815   -0.192815   -0.192815     3.362230        |
 +----------------------------------------------------------------------------+
 |                           b_k Directions (Ang^-1)                          |
 |                           -----------------------                          |
 |            No.           x           y           z                         |
 |            ---        --------------------------------                     |
 |             1        -0.192815    0.192815   -0.192815                     |
 |             2         0.192815    0.192815    0.192815                     |
 |             3        -0.192815   -0.192815    0.192815                     |
 |             4        -0.192815    0.192815    0.192815                     |
 +----------------------------------------------------------------------------+
  
 Time to get kmesh              0.154 (sec)
 *============================================================================*
 |                              MEMORY ESTIMATE                               |
 |         Maximum RAM allocated during each phase of the calculation         |
 *============================================================================*
 |                            Wannierise:            1.40 Mb                  |
 |                          plot_wannier:            1.40 Mb                  |
 *----------------------------------------------------------------------------*
  
 Starting a new Wannier90 calculation ...


 Reading overlaps from si.mmn    :  Created on 17Jul2022 at 18:17: 1

 Reading projections from si.amn :  Created on 17Jul2022 at 18:16:56

 Time to read overlaps          0.039 (sec)

 Writing checkpoint file si.chk... done

 
 *------------------------------- WANNIERISE ---------------------------------*
 +--------------------------------------------------------------------+<-- CONV
 | Iter  Delta Spread     RMS Gradient      Spread (Ang^2)      Time  |<-- CONV
 +--------------------------------------------------------------------+<-- CONV
 
 ------------------------------------------------------------------------------
 Initial State
  WF centre and spread    1  (  -0.000000048556263,   0.000000047513253,   0.000000018410155 )   1.934027765849053
  WF centre and spread    2  (  -1.357773462924009,  -0.000000033901459,   1.357773449832313 )   1.934027806283992
  WF centre and spread    3  (  -0.000000017549235,   1.357773474850033,   1.357773502590720 )   1.934027849316429
  WF centre and spread    4  (  -1.357773475635571,   1.357773482775090,   0.000000006038467 )   1.934027716789184
  Sum of centres and spreads (  -2.715547004665079,   2.715546971236917,   2.715546976871654 )   7.736111138238657
 
      0     0.774E+01     0.0000000000        7.7361111382       0.00  <-- CONV
        O_D=      0.0000000 O_OD=      0.6348452 O_TOT=      7.7361111 <-- SPRD
 ------------------------------------------------------------------------------
 Cycle:      1
  WF centre and spread    1  (  -0.000000046935749,   0.000000048357735,   0.000000015945014 )   1.916846156856203
  WF centre and spread    2  (  -1.357773462441452,  -0.000000034242516,   1.357773451284024 )   1.916846186196960
  WF centre and spread    3  (  -0.000000018887933,   1.357773474831645,   1.357773502041268 )   1.916846227877532
  WF centre and spread    4  (  -1.357773478057234,   1.357773483765512,   0.000000006707837 )   1.916846095878787
  Sum of centres and spreads (  -2.715547006322369,   2.715546972712375,   2.715546975978143 )   7.667384666809482
 
      1    -0.687E-01     0.1872986149        7.6673846668       0.02  <-- CONV
        O_D=      0.0000000 O_OD=      0.5661187 O_TOT=      7.6673847 <-- SPRD
 Delta: O_D=  0.4677472E-12 O_OD= -0.6872647E-01 O_TOT= -0.6872647E-01 <-- DLTA
 ------------------------------------------------------------------------------
 Cycle:      2
  WF centre and spread    1  (  -0.000000046186741,   0.000000049279249,   0.000000015158265 )   1.915127502412854
  WF centre and spread    2  (  -1.357773462541556,  -0.000000034591038,   1.357773451407544 )   1.915127528459437
  WF centre and spread    3  (  -0.000000020092875,   1.357773474508568,   1.357773502669251 )   1.915127572723358
  WF centre and spread    4  (  -1.357773478681090,   1.357773484191166,   0.000000007542654 )   1.915127443871405
  Sum of centres and spreads (  -2.715547007502261,   2.715546973387946,   2.715546976777715 )   7.660510047467055
 
      2    -0.687E-02     0.0668238910        7.6605100474       0.03  <-- CONV
        O_D=      0.0000000 O_OD=      0.5592441 O_TOT=      7.6605100 <-- SPRD
 Delta: O_D=  0.2718343E-12 O_OD= -0.6874619E-02 O_TOT= -0.6874619E-02 <-- DLTA
 ------------------------------------------------------------------------------
 Cycle:      3
  WF centre and spread    1  (  -0.000000045795856,   0.000000049748131,   0.000000014387749 )   1.914963244002164
  WF centre and spread    2  (  -1.357773462314825,  -0.000000034637894,   1.357773451284523 )   1.914963268144969
  WF centre and spread    3  (  -0.000000020671376,   1.357773474054417,   1.357773503056955 )   1.914963316278054
  WF centre and spread    4  (  -1.357773478951888,   1.357773484351361,   0.000000008188369 )   1.914963187208465
  Sum of centres and spreads (  -2.715547007733945,   2.715546973516015,   2.715546976917596 )   7.659853015633653
 
      3    -0.657E-03     0.0247744698        7.6598530156       0.04  <-- CONV
        O_D=      0.0000000 O_OD=      0.5585870 O_TOT=      7.6598530 <-- SPRD
 Delta: O_D= -0.1113037E-11 O_OD= -0.6570318E-03 O_TOT= -0.6570318E-03 <-- DLTA
 ------------------------------------------------------------------------------
 Cycle:      4
  WF centre and spread    1  (  -0.000000045356592,   0.000000049907616,   0.000000013865850 )   1.914943322279742
  WF centre and spread    2  (  -1.357773462070283,  -0.000000034776418,   1.357773451074855 )   1.914943344476318
  WF centre and spread    3  (  -0.000000021029092,   1.357773473914523,   1.357773503257846 )   1.914943394431685
  WF centre and spread    4  (  -1.357773479121595,   1.357773484564762,   0.000000008879667 )   1.914943267085631
  Sum of centres and spreads (  -2.715547007577562,   2.715546973610483,   2.715546977078218 )   7.659773328273374
 
      4    -0.797E-04     0.0089600776        7.6597733282       0.05  <-- CONV
        O_D=      0.0000000 O_OD=      0.5585074 O_TOT=      7.6597733 <-- SPRD
 Delta: O_D= -0.4804422E-12 O_OD= -0.7968736E-04 O_TOT= -0.7968736E-04 <-- DLTA
 ------------------------------------------------------------------------------
 Cycle:      5
  WF centre and spread    1  (  -0.000000045024668,   0.000000050111135,   0.000000013332913 )   1.914942341167128
  WF centre and spread    2  (  -1.357773461942160,  -0.000000034862662,   1.357773450904410 )   1.914942361379049
  WF centre and spread    3  (  -0.000000021452048,   1.357773473713005,   1.357773503491991 )   1.914942413560699
  WF centre and spread    4  (  -1.357773479325151,   1.357773484781474,   0.000000009465483 )   1.914942287233724
  Sum of centres and spreads (  -2.715547007744026,   2.715546973742951,   2.715546977194797 )   7.659769403340601
 
      5    -0.392E-05     0.0018888583        7.6597694033       0.06  <-- CONV
        O_D=      0.0000000 O_OD=      0.5585034 O_TOT=      7.6597694 <-- SPRD
 Delta: O_D= -0.3684369E-13 O_OD= -0.3924933E-05 O_TOT= -0.3924933E-05 <-- DLTA
 ------------------------------------------------------------------------------
 Cycle:      6
  WF centre and spread    1  (  -0.000000044707223,   0.000000050316644,   0.000000012850952 )   1.914942274371971
  WF centre and spread    2  (  -1.357773461778135,  -0.000000035000919,   1.357773450742247 )   1.914942292762706
  WF centre and spread    3  (  -0.000000021812858,   1.357773473553022,   1.357773503722025 )   1.914942347015019
  WF centre and spread    4  (  -1.357773479502812,   1.357773485014329,   0.000000010063130 )   1.914942221596980
  Sum of centres and spreads (  -2.715547007801028,   2.715546973883076,   2.715546977378353 )   7.659769135746677
 
      6    -0.268E-06     0.0004882199        7.6597691357       0.07  <-- CONV
        O_D=      0.0000000 O_OD=      0.5585032 O_TOT=      7.6597691 <-- SPRD
 Delta: O_D= -0.1423235E-13 O_OD= -0.2675939E-06 O_TOT= -0.2675939E-06 <-- DLTA
 ------------------------------------------------------------------------------
 Cycle:      7
  WF centre and spread    1  (  -0.000000044466784,   0.000000050489979,   0.000000012456452 )   1.914942266176389
  WF centre and spread    2  (  -1.357773461673860,  -0.000000035089747,   1.357773450614470 )   1.914942283112154
  WF centre and spread    3  (  -0.000000022114130,   1.357773473411264,   1.357773503913043 )   1.914942339040393
  WF centre and spread    4  (  -1.357773479659153,   1.357773485187649,   0.000000010508062 )   1.914942214281765
  Sum of centres and spreads (  -2.715547007913927,   2.715546973999144,   2.715546977492028 )   7.659769102610703
 
      7    -0.331E-07     0.0001807424        7.6597691026       0.08  <-- CONV
        O_D=      0.0000000 O_OD=      0.5585031 O_TOT=      7.6597691 <-- SPRD
 Delta: O_D= -0.1331647E-13 O_OD= -0.3313596E-07 O_TOT= -0.3313597E-07 <-- DLTA
 ------------------------------------------------------------------------------
 Cycle:      8
  WF centre and spread    1  (  -0.000000044132627,   0.000000050723464,   0.000000011933247 )   1.914942264562038
  WF centre and spread    2  (  -1.357773461509810,  -0.000000035242591,   1.357773450434331 )   1.914942279574667
  WF centre and spread    3  (  -0.000000022503230,   1.357773473234896,   1.357773504168453 )   1.914942337696540
  WF centre and spread    4  (  -1.357773479864669,   1.357773485438256,   0.000000011131501 )   1.914942213855666
  Sum of centres and spreads (  -2.715547008010337,   2.715546974154026,   2.715546977667532 )   7.659769095688914
 
      8    -0.692E-08     0.0000732037        7.6597690956       0.09  <-- CONV
        O_D=      0.0000000 O_OD=      0.5585031 O_TOT=      7.6597691 <-- SPRD
 Delta: O_D= -0.3089674E-14 O_OD= -0.6921780E-08 O_TOT= -0.6921783E-08 <-- DLTA
 ------------------------------------------------------------------------------
 Cycle:      9
  WF centre and spread    1  (  -0.000000043798275,   0.000000050970380,   0.000000011387997 )   1.914942264590920
  WF centre and spread    2  (  -1.357773461353516,  -0.000000035389764,   1.357773450249298 )   1.914942277631522
  WF centre and spread    3  (  -0.000000022911837,   1.357773473042414,   1.357773504442382 )   1.914942338041699
  WF centre and spread    4  (  -1.357773480083892,   1.357773485690534,   0.000000011758985 )   1.914942215076572
  Sum of centres and spreads (  -2.715547008147519,   2.715546974313564,   2.715546977838662 )   7.659769095340714
 
      9    -0.348E-09     0.0000186939        7.6597690953       0.10  <-- CONV
        O_D=      0.0000000 O_OD=      0.5585031 O_TOT=      7.6597691 <-- SPRD
 Delta: O_D=  0.1240428E-12 O_OD= -0.3483441E-09 O_TOT= -0.3482201E-09 <-- DLTA
 ------------------------------------------------------------------------------
 Cycle:     10
  WF centre and spread    1  (  -0.000000043519175,   0.000000051178197,   0.000000010941418 )   1.914942264671221
  WF centre and spread    2  (  -1.357773461211552,  -0.000000035533295,   1.357773450089173 )   1.914942276127884
  WF centre and spread    3  (  -0.000000023236673,   1.357773472892468,   1.357773504666281 )   1.914942338359604
  WF centre and spread    4  (  -1.357773480264438,   1.357773485907766,   0.000000012286992 )   1.914942216128070
  Sum of centres and spreads (  -2.715547008231838,   2.715546974445137,   2.715546977983864 )   7.659769095286780
 
     10    -0.539E-10     0.0000096242        7.6597690952       0.11  <-- CONV
        O_D=      0.0000000 O_OD=      0.5585031 O_TOT=      7.6597691 <-- SPRD
 Delta: O_D= -0.1830044E-13 O_OD= -0.5391310E-10 O_TOT= -0.5393108E-10 <-- DLTA
 ------------------------------------------------------------------------------
 Cycle:     11
  WF centre and spread    1  (  -0.000000043517154,   0.000000051179758,   0.000000010938095 )   1.914942264671799
  WF centre and spread    2  (  -1.357773461210573,  -0.000000035534298,   1.357773450087999 )   1.914942276116816
  WF centre and spread    3  (  -0.000000023239108,   1.357773472891301,   1.357773504667997 )   1.914942338362179
  WF centre and spread    4  (  -1.357773480265793,   1.357773485909334,   0.000000012290826 )   1.914942216135658
  Sum of centres and spreads (  -2.715547008232628,   2.715546974446095,   2.715546977984917 )   7.659769095286453
 
     11    -0.322E-12     0.0000044531        7.6597690952       0.12  <-- CONV
        O_D=      0.0000000 O_OD=      0.5585031 O_TOT=      7.6597691 <-- SPRD
 Delta: O_D= -0.4754497E-14 O_OD= -0.3179679E-12 O_TOT= -0.3224088E-12 <-- DLTA
 ------------------------------------------------------------------------------
 Cycle:     12
  WF centre and spread    1  (  -0.000000043023231,   0.000000051563086,   0.000000010123118 )   1.914942264836430
  WF centre and spread    2  (  -1.357773460972940,  -0.000000035778492,   1.357773449800000 )   1.914942273431706
  WF centre and spread    3  (  -0.000000023836982,   1.357773472603478,   1.357773505090526 )   1.914942339025237
  WF centre and spread    4  (  -1.357773480598048,   1.357773486292041,   0.000000013228019 )   1.914942218011591
  Sum of centres and spreads (  -2.715547008431201,   2.715546974680113,   2.715546978241663 )   7.659769095304965
 
     12     0.185E-10     0.0000044187        7.6597690953       0.12  <-- CONV
        O_D=      0.0000000 O_OD=      0.5585031 O_TOT=      7.6597691 <-- SPRD
 Delta: O_D=  0.1938717E-11 O_OD=  0.1660072E-10 O_TOT=  0.1853895E-10 <-- DLTA
 ------------------------------------------------------------------------------
 Cycle:     13
  WF centre and spread    1  (  -0.000000042952092,   0.000000051621556,   0.000000010007784 )   1.914942264849355
  WF centre and spread    2  (  -1.357773460930474,  -0.000000035827371,   1.357773449753923 )   1.914942273067906
  WF centre and spread    3  (  -0.000000023914791,   1.357773472567686,   1.357773505147853 )   1.914942339088139
  WF centre and spread    4  (  -1.357773480645925,   1.357773486352043,   0.000000013367356 )   1.914942218263251
  Sum of centres and spreads (  -2.715547008443281,   2.715546974713914,   2.715546978276916 )   7.659769095268649
 
     13    -0.363E-10     0.0000072422        7.6597690952       0.13  <-- CONV
        O_D=      0.0000000 O_OD=      0.5585031 O_TOT=      7.6597691 <-- SPRD
 Delta: O_D= -0.2089888E-11 O_OD= -0.3422695E-10 O_TOT= -0.3631673E-10 <-- DLTA
 ------------------------------------------------------------------------------
 Cycle:     14
  WF centre and spread    1  (  -0.000000042904753,   0.000000051660622,   0.000000009929360 )   1.914942264862309
  WF centre and spread    2  (  -1.357773460905267,  -0.000000035856011,   1.357773449724188 )   1.914942272821055
  WF centre and spread    3  (  -0.000000023969801,   1.357773472541016,   1.357773505188833 )   1.914942339145982
  WF centre and spread    4  (  -1.357773480678294,   1.357773486390478,   0.000000013459016 )   1.914942218434996
  Sum of centres and spreads (  -2.715547008458115,   2.715546974736105,   2.715546978301396 )   7.659769095264341
 
     14    -0.433E-11     0.0000026010        7.6597690952       0.14  <-- CONV
        O_D=      0.0000000 O_OD=      0.5585031 O_TOT=      7.6597691 <-- SPRD
 Delta: O_D=  0.1449327E-13 O_OD= -0.4347744E-11 O_TOT= -0.4333423E-11 <-- DLTA
 ------------------------------------------------------------------------------
 Cycle:     15
  WF centre and spread    1  (  -0.000000042903123,   0.000000051661975,   0.000000009926640 )   1.914942264862773
  WF centre and spread    2  (  -1.357773460904419,  -0.000000035856974,   1.357773449723167 )   1.914942272812504
  WF centre and spread    3  (  -0.000000023971721,   1.357773472540074,   1.357773505190268 )   1.914942339148066
  WF centre and spread    4  (  -1.357773480679418,   1.357773486391793,   0.000000013462168 )   1.914942218440915
  Sum of centres and spreads (  -2.715547008458681,   2.715546974736868,   2.715546978302243 )   7.659769095264259
 
     15    -0.684E-13     0.0000014631        7.6597690952       0.15  <-- CONV
        O_D=      0.0000000 O_OD=      0.5585031 O_TOT=      7.6597691 <-- SPRD
 Delta: O_D= -0.5392713E-15 O_OD= -0.6772360E-13 O_TOT= -0.6838974E-13 <-- DLTA
 ------------------------------------------------------------------------------
 Cycle:     16
  WF centre and spread    1  (  -0.000000042900353,   0.000000051664277,   0.000000009922013 )   1.914942264863569
  WF centre and spread    2  (  -1.357773460902985,  -0.000000035858606,   1.357773449721432 )   1.914942272797965
  WF centre and spread    3  (  -0.000000023974990,   1.357773472538466,   1.357773505192712 )   1.914942339151636
  WF centre and spread    4  (  -1.357773480681327,   1.357773486394027,   0.000000013467525 )   1.914942218450999
  Sum of centres and spreads (  -2.715547008459654,   2.715546974738164,   2.715546978303681 )   7.659769095264167
 
     16    -0.104E-12     0.0000014397        7.6597690952       0.15  <-- CONV
        O_D=      0.0000000 O_OD=      0.5585031 O_TOT=      7.6597691 <-- SPRD
 Delta: O_D= -0.1216599E-14 O_OD= -0.1032507E-12 O_TOT= -0.1039169E-12 <-- DLTA
 ------------------------------------------------------------------------------
 Cycle:     17
  WF centre and spread    1  (  -0.000000042896530,   0.000000051667456,   0.000000009915624 )   1.914942264864673
  WF centre and spread    2  (  -1.357773460901007,  -0.000000035860854,   1.357773449719036 )   1.914942272777891
  WF centre and spread    3  (  -0.000000023979507,   1.357773472536244,   1.357773505196089 )   1.914942339156561
  WF centre and spread    4  (  -1.357773480683964,   1.357773486397107,   0.000000013474916 )   1.914942218464911
  Sum of centres and spreads (  -2.715547008461007,   2.715546974739954,   2.715546978305664 )   7.659769095264036
 
     17    -0.131E-12     0.0000014036        7.6597690952       0.16  <-- CONV
        O_D=      0.0000000 O_OD=      0.5585031 O_TOT=      7.6597691 <-- SPRD
 Delta: O_D= -0.1764879E-14 O_OD= -0.1286748E-12 O_TOT= -0.1305622E-12 <-- DLTA
 ------------------------------------------------------------------------------
 Cycle:     18
  WF centre and spread    1  (  -0.000000042846645,   0.000000051708950,   0.000000009832226 )   1.914942264879042
  WF centre and spread    2  (  -1.357773460875211,  -0.000000035890172,   1.357773449687779 )   1.914942272516066
  WF centre and spread    3  (  -0.000000024038471,   1.357773472507230,   1.357773505240174 )   1.914942339221126
  WF centre and spread    4  (  -1.357773480718386,   1.357773486437296,   0.000000013571365 )   1.914942218646554
  Sum of centres and spreads (  -2.715547008478713,   2.715546974763304,   2.715546978331544 )   7.659769095262787
 
     18    -0.124E-11     0.0000013562        7.6597690952       0.16  <-- CONV
        O_D=      0.0000000 O_OD=      0.5585031 O_TOT=      7.6597691 <-- SPRD
 Delta: O_D= -0.1495598E-13 O_OD= -0.1228351E-11 O_TOT= -0.1243450E-11 <-- DLTA
 ------------------------------------------------------------------------------
 Cycle:     19
  WF centre and spread    1  (  -0.000000042845487,   0.000000051709923,   0.000000009830281 )   1.914942264879377
  WF centre and spread    2  (  -1.357773460874609,  -0.000000035890860,   1.357773449687047 )   1.914942272510005
  WF centre and spread    3  (  -0.000000024039842,   1.357773472506551,   1.357773505241203 )   1.914942339222644
  WF centre and spread    4  (  -1.357773480719191,   1.357773486438232,   0.000000013573610 )   1.914942218650773
  Sum of centres and spreads (  -2.715547008479128,   2.715546974763845,   2.715546978332140 )   7.659769095262801
 
     19    -0.977E-14     0.0000007742        7.6597690952       0.17  <-- CONV
        O_D=      0.0000000 O_OD=      0.5585031 O_TOT=      7.6597691 <-- SPRD
 Delta: O_D= -0.5116215E-16 O_OD= -0.9325873E-14 O_TOT= -0.9769963E-14 <-- DLTA
 ------------------------------------------------------------------------------
 Cycle:     20
  WF centre and spread    1  (  -0.000000042843190,   0.000000051711851,   0.000000009826426 )   1.914942264880046
  WF centre and spread    2  (  -1.357773460873418,  -0.000000035892224,   1.357773449685599 )   1.914942272497973
  WF centre and spread    3  (  -0.000000024042562,   1.357773472505207,   1.357773505243241 )   1.914942339225633
  WF centre and spread    4  (  -1.357773480720785,   1.357773486440088,   0.000000013578059 )   1.914942218659127
  Sum of centres and spreads (  -2.715547008479955,   2.715546974764922,   2.715546978333324 )   7.659769095262780
 
     20    -0.222E-13     0.0000007675        7.6597690952       0.17  <-- CONV
        O_D=      0.0000000 O_OD=      0.5585031 O_TOT=      7.6597691 <-- SPRD
 Delta: O_D= -0.9770079E-16 O_OD= -0.2264855E-13 O_TOT= -0.2220446E-13 <-- DLTA
 ------------------------------------------------------------------------------
 Cycle:     21
  WF centre and spread    1  (  -0.000000042829054,   0.000000051723719,   0.000000009802694 )   1.914942264884153
  WF centre and spread    2  (  -1.357773460866081,  -0.000000035900621,   1.357773449676674 )   1.914942272423926
  WF centre and spread    3  (  -0.000000024059300,   1.357773472496938,   1.357773505255794 )   1.914942339243999
  WF centre and spread    4  (  -1.357773480730596,   1.357773486451511,   0.000000013605446 )   1.914942218710577
  Sum of centres and spreads (  -2.715547008485031,   2.715546974771548,   2.715546978340607 )   7.659769095262654
 
     21    -0.124E-12     0.0000007542        7.6597690952       0.18  <-- CONV
        O_D=      0.0000000 O_OD=      0.5585031 O_TOT=      7.6597691 <-- SPRD
 Delta: O_D= -0.5130429E-15 O_OD= -0.1236788E-12 O_TOT= -0.1243450E-12 <-- DLTA
 ------------------------------------------------------------------------------
 Cycle:     22
  WF centre and spread    1  (  -0.000000042825215,   0.000000051726944,   0.000000009796248 )   1.914942264885265
  WF centre and spread    2  (  -1.357773460864088,  -0.000000035902903,   1.357773449674249 )   1.914942272403814
  WF centre and spread    3  (  -0.000000024063845,   1.357773472494691,   1.357773505259202 )   1.914942339248991
  WF centre and spread    4  (  -1.357773480733262,   1.357773486454614,   0.000000013612884 )   1.914942218724537
  Sum of centres and spreads (  -2.715547008486410,   2.715546974773346,   2.715546978342583 )   7.659769095262607
 
     22    -0.302E-13     0.0000006734        7.6597690952       0.19  <-- CONV
        O_D=      0.0000000 O_OD=      0.5585031 O_TOT=      7.6597691 <-- SPRD
 Delta: O_D= -0.1074930E-15 O_OD= -0.2986500E-13 O_TOT= -0.3019807E-13 <-- DLTA
 ------------------------------------------------------------------------------
 Cycle:     23
  WF centre and spread    1  (  -0.000000042783450,   0.000000051762049,   0.000000009726112 )   1.914942264897411
  WF centre and spread    2  (  -1.357773460842393,  -0.000000035927764,   1.357773449647857 )   1.914942272185177
  WF centre and spread    3  (  -0.000000024113289,   1.357773472470255,   1.357773505296296 )   1.914942339303275
  WF centre and spread    4  (  -1.357773480762263,   1.357773486488379,   0.000000013693822 )   1.914942218876518
  Sum of centres and spreads (  -2.715547008501396,   2.715546974792920,   2.715546978364087 )   7.659769095262380
 
     23    -0.259E-12     0.0000006523        7.6597690952       0.19  <-- CONV
        O_D=      0.0000000 O_OD=      0.5585031 O_TOT=      7.6597691 <-- SPRD
 Delta: O_D= -0.6069058E-15 O_OD= -0.2591261E-12 O_TOT= -0.2593481E-12 <-- DLTA
 ------------------------------------------------------------------------------

             <<<     Delta < 1.000E-12  over  5 iterations     >>>
             <<< Wannierisation convergence criteria satisfied >>>

 Final State
  WF centre and spread    1  (  -0.000000042783450,   0.000000051762049,   0.000000009726112 )   1.914942264897411
  WF centre and spread    2  (  -1.357773460842393,  -0.000000035927764,   1.357773449647857 )   1.914942272185177
  WF centre and spread    3  (  -0.000000024113289,   1.357773472470255,   1.357773505296296 )   1.914942339303275
  WF centre and spread    4  (  -1.357773480762263,   1.357773486488379,   0.000000013693822 )   1.914942218876518
  Sum of centres and spreads (  -2.715547008501396,   2.715546974792920,   2.715546978364087 )   7.659769095262380
 
         Spreads (Ang^2)       Omega I      =     7.101265973
        ================       Omega D      =     0.000000000
                               Omega OD     =     0.558503122
    Final Spread (Ang^2)       Omega Total  =     7.659769095
 ------------------------------------------------------------------------------
 Time for wannierise            0.198 (sec)

 Writing checkpoint file si.chk... done

 Time for plotting              0.000 (sec)
 Total Execution Time           0.435 (sec)

 *===========================================================================*
 |                             TIMING INFORMATION                            |
 *===========================================================================*
 |    Tag                                                Ncalls      Time (s)|
 |---------------------------------------------------------------------------|
 |kmesh: get                                        :         1         0.154|
 |overlap: allocate                                 :         1         0.001|
 |overlap: read                                     :         1         0.038|
 |wann: main                                        :         1         0.198|
 |plot: main                                        :         1         0.000|
 *---------------------------------------------------------------------------*
 
 All done: wannier90 exiting
