 
             +---------------------------------------------------+
             |                                                   |
             |                   WANNIER90                       |
             |                                                   |
             +---------------------------------------------------+
             |                                                   |
             |        Welcome to the Maximally-Localized         |
             |        Generalized Wannier Functions code         |
             |            http://www.wannier.org                 |
             |                                                   |
             |                                                   |
             |  Wannier90 Developer Group:                       |
             |    Giovanni Pizzi    (EPFL)                       |
             |    Valerio Vitale    (Cambridge)                  |
             |    David Vanderbilt  (Rutgers University)         |
             |    Nicola Marzari    (EPFL)                       |
             |    Ivo Souza         (Universidad del Pais Vasco) |
             |    Arash A. Mostofi  (Imperial College London)    |
             |    Jonathan R. Yates (University of Oxford)       |
             |                                                   |
             |  For the full list of Wannier90 3.x authors,      |
             |  please check the code documentation and the      |
             |  README on the GitHub page of the code            |
             |                                                   |
             |                                                   |
             |  Please cite                                      |
             |                                                   |
             |  [ref] "Wannier90 as a community code:            |
             |        new features and applications",            |
             |        G. Pizzi et al., J. Phys. Cond. Matt. 32,  |
             |        165902 (2020).                             |
             |        http://doi.org/10.1088/1361-648X/ab51ff    |
             |                                                   |
             |  in any publications arising from the use of      |
             |  this code. For the method please cite            |
             |                                                   |
             |  [ref] "Maximally Localized Generalised Wannier   |
             |         Functions for Composite Energy Bands"     |
             |         N. Marzari and D. Vanderbilt              |
             |         Phys. Rev. B 56 12847 (1997)              |
             |                                                   |
             |  [ref] "Maximally Localized Wannier Functions     |
             |         for Entangled Energy Bands"               |
             |         I. Souza, N. Marzari and D. Vanderbilt    |
             |         Phys. Rev. B 65 035109 (2001)             |
             |                                                   |
             |                                                   |
             | Copyright (c) 1996-2020                           |
             |        The Wannier90 Developer Group and          |
             |        individual contributors                    |
             |                                                   |
             |      Release: 3.1.0        5th March    2020      |
             |                                                   |
             | This program is free software; you can            |
             | redistribute it and/or modify it under the terms  |
             | of the GNU General Public License as published by |
             | the Free Software Foundation; either version 2 of |
             | the License, or (at your option) any later version|
             |                                                   |
             | This program is distributed in the hope that it   |
             | will be useful, but WITHOUT ANY WARRANTY; without |
             | even the implied warranty of MERCHANTABILITY or   |
             | FITNESS FOR A PARTICULAR PURPOSE. See the GNU     |
             | General Public License for more details.          |
             |                                                   |
             | You should have received a copy of the GNU General|
             | Public License along with this program; if not,   |
             | write to the Free Software Foundation, Inc.,      |
             | 675 Mass Ave, Cambridge, MA 02139, USA.           |
             |                                                   |
             +---------------------------------------------------+
             |    Execution started on  4Jul2022 at 22:32:09     |
             +---------------------------------------------------+
 
 ******************************************************************************
 * -> Using CODATA 2006 constant values                                       *
 *    (http://physics.nist.gov/cuu/Constants/index.html)                      *
 * -> Using Bohr value from CODATA                                            *
 ******************************************************************************
 

 Running in parallel on  16 CPUs

 
                                    ------
                                    SYSTEM
                                    ------
 
                              Lattice Vectors (Ang)
                    a_1    -1.805023   0.000000   1.805023
                    a_2     0.000000   1.805023   1.805023
                    a_3    -1.805023   1.805023   0.000000
 
                   Unit Cell Volume:      11.76193  (Ang^3)
 
                        Reciprocal-Space Vectors (Ang^-1)
                    b_1    -1.740472  -1.740472   1.740472
                    b_2     1.740472   1.740472   1.740472
                    b_3    -1.740472   1.740472  -1.740472
  
 *----------------------------------------------------------------------------*
 |   Site       Fractional Coordinate          Cartesian Coordinate (Ang)     |
 +----------------------------------------------------------------------------+
 | Cu   1   0.00000   0.00000   0.00000   |    0.00000   0.00000   0.00000    |
 *----------------------------------------------------------------------------*
                                ------------
                                K-POINT GRID
                                ------------
  
             Grid size =  3 x  3 x  3      Total points =   27
  
  
 *---------------------------------- MAIN ------------------------------------*
 |  Number of Wannier Functions               :                 7             |
 |  Number of Objective Wannier Functions     :                 7             |
 |  Number of input Bloch states              :                10             |
 |  Output verbosity (1=low, 5=high)          :                 1             |
 |  Timing Level (1=low, 5=high)              :                 1             |
 |  Optimisation (0=memory, 3=speed)          :                 3             |
 |  Length Unit                               :               Ang             |
 |  Post-processing setup (write *.nnkp)      :                 F             |
 |  Using Gamma-only branch of algorithms     :                 F             |
 *----------------------------------------------------------------------------*
 *------------------------------- WANNIERISE ---------------------------------*
 |  Total number of iterations                :               100             |
 |  Number of CG steps before reset           :                 5             |
 |  Trial step length for line search         :             2.000             |
 |  Convergence tolerence                     :         0.100E-11             |
 |  Convergence window                        :                 5             |
 |  Iterations between writing output         :                 1             |
 |  Iterations between backing up to disk     :               100             |
 |  Write r^2_nm to file                      :                 F             |
 |  Write xyz WF centres to file              :                 F             |
 |  Write on-site energies <0n|H|0n> to file  :                 F             |
 |  Use guiding centre to control phases      :                 F             |
 |  Use phases for initial projections        :                 F             |
 *----------------------------------------------------------------------------*
 *------------------------------- DISENTANGLE --------------------------------*
 |  Using band disentanglement                :                 T             |
 |  Total number of iterations                :               100             |
 |  Mixing ratio                              :             1.000             |
 |  Convergence tolerence                     :         1.000E-10             |
 |  Convergence window                        :                 3             |
 *----------------------------------------------------------------------------*
 *-------------------------------- PLOTTING ----------------------------------*
 |  Plotting interpolated bandstructure       :                 T             |
 |   Number of K-path sections                :                 5             |
 |   Divisions along first K-path section     :               100             |
 |   Output format                            :           gnuplot             |
 |   Output mode                              :               s-k             |
 *----------------------------------------------------------------------------*
 |   K-space path sections:                                                   |
 |    From: G       0.000  0.000  0.000     To: X       0.500  0.500  0.000   |
 |    From: X       0.500  0.500  0.000     To: W       0.500  0.750  0.250   |
 |    From: W       0.500  0.750  0.250     To: L       0.000  0.500  0.000   |
 |    From: L       0.000  0.500  0.000     To: G       0.000  0.000  0.000   |
 |    From: G       0.000  0.000  0.000     To: K       0.000  0.500 -0.500   |
 *----------------------------------------------------------------------------*
 Time to read parameters        0.013 (sec)

 *---------------------------------- K-MESH ----------------------------------*
 +----------------------------------------------------------------------------+
 |                    Distance to Nearest-Neighbour Shells                    |
 |                    ------------------------------------                    |
 |          Shell             Distance (Ang^-1)          Multiplicity         |
 |          -----             -----------------          ------------         |
 |             1                   1.004862                      8            |
 |             2                   1.160315                      6            |
 |             3                   1.640933                     12            |
 |             4                   1.924164                     24            |
 |             5                   2.009724                      8            |
 |             6                   2.320629                      6            |
 |             7                   2.528847                     24            |
 |             8                   2.594542                     24            |
 |             9                   2.842179                     24            |
 |            10                   3.014586                     32            |
 |            11                   3.281865                     12            |
 |            12                   3.432257                     48            |
 |            13                   3.480944                     30            |
 |            14                   3.669237                     24            |
 |            15                   3.804346                     24            |
 |            16                   3.848328                     24            |
 |            17                   4.019448                      8            |
 |            18                   4.143152                     48            |
 |            19                   4.183574                     24            |
 |            20                   4.341500                     48            |
 |            21                   4.456273                     72            |
 |            22                   4.641258                      6            |
 |            23                   4.748792                     24            |
 |            24                   4.784100                     48            |
 |            25                   4.922798                     36            |
 |            26                   5.024310                     56            |
 |            27                   5.057694                     24            |
 |            28                   5.189085                     24            |
 |            29                   5.285485                     72            |
 |            30                   5.317230                     48            |
 |            31                   5.442358                     24            |
 |            32                   5.534348                     48            |
 |            33                   5.684358                     24            |
 |            34                   5.772492                     72            |
 |            35                   5.801573                     30            |
 |            36                   5.916467                     72            |
 +----------------------------------------------------------------------------+
 | The b-vectors are chosen automatically                                     |
 | The following shells are used:   1                                         |
 +----------------------------------------------------------------------------+
 |                        Shell   # Nearest-Neighbours                        |
 |                        -----   --------------------                        |
 |                          1               8                                 |
 +----------------------------------------------------------------------------+
 | Completeness relation is fully satisfied [Eq. (B1), PRB 56, 12847 (1997)]  |
 | Completeness relations for higher-order are fully satisfied                |
 +----------------------------------------------------------------------------+
 |                  b_k Vectors (Ang^-1) and Weights (Ang^2)                  |
 |                  ----------------------------------------                  |
 |            No.         b_k(x)      b_k(y)      b_k(z)        w_b           |
 |            ---        --------------------------------     --------        |
 |             1        -0.580157    0.580157   -0.580157     0.371380        |
 |             2         0.580157    0.580157    0.580157     0.371380        |
 |             3        -0.580157   -0.580157    0.580157     0.371380        |
 |             4        -0.580157    0.580157    0.580157     0.371380        |
 |             5         0.580157   -0.580157    0.580157     0.371380        |
 |             6        -0.580157   -0.580157   -0.580157     0.371380        |
 |             7         0.580157    0.580157   -0.580157     0.371380        |
 |             8         0.580157   -0.580157   -0.580157     0.371380        |
 +----------------------------------------------------------------------------+
 |                           b_k Directions (Ang^-1)                          |
 |                           -----------------------                          |
 |            No.           x           y           z                         |
 |            ---        --------------------------------                     |
 |             1        -0.580157    0.580157   -0.580157                     |
 |             2         0.580157    0.580157    0.580157                     |
 |             3        -0.580157   -0.580157    0.580157                     |
 |             4        -0.580157    0.580157    0.580157                     |
 +----------------------------------------------------------------------------+
  
 Time to get kmesh              0.038 (sec)
 *============================================================================*
 |                              MEMORY ESTIMATE                               |
 |         Maximum RAM allocated during each phase of the calculation         |
 *============================================================================*
 |                        Disentanglement            0.59 Mb                  |
 |                            Wannierise:            0.51 Mb                  |
 |                          plot_wannier:            0.51 Mb                  |
 *----------------------------------------------------------------------------*
  
 Starting a new Wannier90 calculation ...


 Reading overlaps from Cu.mmn    :  Created on  4Jul2022 at 21:53: 6

 Reading projections from Cu.amn :  Created on  4Jul2022 at 21:53: 5

 Time to read overlaps          0.043 (sec)

 *------------------------------- DISENTANGLE --------------------------------*
 +----------------------------------------------------------------------------+
 |                              Energy  Windows                               |
 |                              ---------------                               |
 |                   Outer:    8.00509  to   42.76033  (eV)                   |
 |                   Inner:    8.00509  to   20.00000  (eV)                   |
 +----------------------------------------------------------------------------+
   Number of target bands to extract:    7

                   Unitarised projection of Wannier functions                  
                   ------------------------------------------                  
   A_mn = <psi_m|g_n> --> S = A.A^+ --> U = S^-1/2.A
   In dis_project... done
   Using an inner window (linner = T)
   In dis_proj_froz... done

                   Extraction of optimally-connected subspace                  
                   ------------------------------------------                  
 +---------------------------------------------------------------------+<-- DIS
 |  Iter     Omega_I(i-1)      Omega_I(i)      Delta (frac.)    Time   |<-- DIS
 +---------------------------------------------------------------------+<-- DIS
       1       3.49936929       3.48517843       4.072E-03      0.00    <-- DIS
       2       3.48515524       3.48513370       6.179E-06      0.00    <-- DIS
       3       3.48513365       3.48513359       1.463E-08      0.00    <-- DIS
       4       3.48513359       3.48513359       4.919E-11      0.00    <-- DIS
       5       3.48513359       3.48513359       3.175E-13      0.00    <-- DIS
       6       3.48513359       3.48513359       6.439E-15      0.00    <-- DIS

             <<<      Delta < 1.000E-10  over  3 iterations     >>>
             <<< Disentanglement convergence criteria satisfied >>>

        Final Omega_I     3.48513359 (Ang^2)

 +----------------------------------------------------------------------------+

 Time to disentangle bands      0.010 (sec)

 Writing checkpoint file Cu.chk... done

 
 *------------------------------- WANNIERISE ---------------------------------*
 +--------------------------------------------------------------------+<-- CONV
 | Iter  Delta Spread     RMS Gradient      Spread (Ang^2)      Time  |<-- CONV
 +--------------------------------------------------------------------+<-- CONV
 
 ------------------------------------------------------------------------------
 Initial State
  WF centre and spread    1  (   0.000000000006341,  -0.000000000004505,   0.000000000004798 )   0.446215231348117
  WF centre and spread    2  (   0.000000000016016,  -0.000000000012776,   0.000000000053029 )   0.393838653359027
  WF centre and spread    3  (  -0.000000000010595,  -0.000000000003602,   0.000000000009013 )   0.393838653347136
  WF centre and spread    4  (   0.000000000000394,   0.000000000007879,   0.000000000006707 )   0.446082928435877
  WF centre and spread    5  (   0.000000000018521,  -0.000000000012177,   0.000000000015329 )   0.393834637060451
  WF centre and spread    6  (  -0.902511729208492,   0.902511729226749,   0.902511729300932 )   1.083369527273568
  WF centre and spread    7  (   0.902511729261171,  -0.902511729253264,  -0.902511729204651 )   1.083369527248308
  Sum of centres and spreads (   0.000000000083357,  -0.000000000051697,   0.000000000185156 )   4.240549158072485
 
      0     0.424E+01     0.0000000000        4.2405491581       0.04  <-- CONV
        O_D=      0.0128078 O_OD=      0.7426078 O_TOT=      4.2405492 <-- SPRD
 ------------------------------------------------------------------------------
 Cycle:      1
  WF centre and spread    1  (   0.000000000007943,  -0.000000000005088,   0.000000000000897 )   0.447016832145616
  WF centre and spread    2  (   0.000000000018982,  -0.000000000014096,   0.000000000056266 )   0.345584959174528
  WF centre and spread    3  (  -0.000000000014484,  -0.000000000008976,   0.000000000011170 )   0.345584959162441
  WF centre and spread    4  (  -0.000000000003142,   0.000000000006741,   0.000000000006113 )   0.446807253910453
  WF centre and spread    5  (   0.000000000024858,  -0.000000000017393,   0.000000000018514 )   0.345587283958583
  WF centre and spread    6  (  -0.902511729207835,   0.902511729231638,   0.902511729298160 )   0.984714002060799
  WF centre and spread    7  (   0.902511729254994,  -0.902511729247557,  -0.902511729204095 )   0.984714002029108
  Sum of centres and spreads (   0.000000000081316,  -0.000000000054731,   0.000000000187026 )   3.900009292441528
 
      1    -0.341E+00     0.3527697425        3.9000092925       0.05  <-- CONV
        O_D=      0.0174632 O_OD=      0.3974125 O_TOT=      3.9000093 <-- SPRD
 Delta: O_D=  0.4655465E-02 O_OD= -0.3451953E+00 O_TOT= -0.3405399E+00 <-- DLTA
 ------------------------------------------------------------------------------
 Cycle:      2
  WF centre and spread    1  (   0.000000000007889,  -0.000000000005096,  -0.000000000002452 )   0.439072308435420
  WF centre and spread    2  (   0.000000000020313,  -0.000000000013861,   0.000000000057547 )   0.349311645363811
  WF centre and spread    3  (  -0.000000000015045,  -0.000000000010084,   0.000000000013713 )   0.349311645357133
  WF centre and spread    4  (  -0.000000000004360,   0.000000000007060,   0.000000000006238 )   0.439006578535814
  WF centre and spread    5  (   0.000000000027439,  -0.000000000019618,   0.000000000018520 )   0.349316422131424
  WF centre and spread    6  (  -0.902511729208442,   0.902511729233178,   0.902511729299145 )   0.944270718859538
  WF centre and spread    7  (   0.902511729256570,  -0.902511729245253,  -0.902511729202102 )   0.944270718837095
  Sum of centres and spreads (   0.000000000084364,  -0.000000000053674,   0.000000000190610 )   3.814560037520235
 
      2    -0.854E-01     0.2239913996        3.8145600375       0.05  <-- CONV
        O_D=      0.0071601 O_OD=      0.3222663 O_TOT=      3.8145600 <-- SPRD
 Delta: O_D= -0.1030309E-01 O_OD= -0.7514616E-01 O_TOT= -0.8544925E-01 <-- DLTA
 ------------------------------------------------------------------------------
 Cycle:      3
  WF centre and spread    1  (   0.000000000007919,  -0.000000000004932,  -0.000000000002887 )   0.437747778741270
  WF centre and spread    2  (   0.000000000020092,  -0.000000000014006,   0.000000000057295 )   0.349726966907747
  WF centre and spread    3  (  -0.000000000015090,  -0.000000000010135,   0.000000000013892 )   0.349726966903578
  WF centre and spread    4  (  -0.000000000004513,   0.000000000006967,   0.000000000006324 )   0.437743291376595
  WF centre and spread    5  (   0.000000000027666,  -0.000000000020263,   0.000000000018370 )   0.349725826430512
  WF centre and spread    6  (  -0.902511729208709,   0.902511729232542,   0.902511729298817 )   0.940793348067544
  WF centre and spread    7  (   0.902511729256214,  -0.902511729244495,  -0.902511729201479 )   0.940793348046422
  Sum of centres and spreads (   0.000000000083580,  -0.000000000054321,   0.000000000190333 )   3.806257526473668
 
      3    -0.830E-02     0.0853887917        3.8062575265       0.05  <-- CONV
        O_D=      0.0046664 O_OD=      0.3164576 O_TOT=      3.8062575 <-- SPRD
 Delta: O_D= -0.2493781E-02 O_OD= -0.5808730E-02 O_TOT= -0.8302511E-02 <-- DLTA
 ------------------------------------------------------------------------------
 Cycle:      4
  WF centre and spread    1  (   0.000000000007903,  -0.000000000004957,  -0.000000000002882 )   0.437711055453075
  WF centre and spread    2  (   0.000000000020118,  -0.000000000014082,   0.000000000057306 )   0.349396148469504
  WF centre and spread    3  (  -0.000000000015127,  -0.000000000010084,   0.000000000013983 )   0.349396148465225
  WF centre and spread    4  (  -0.000000000004426,   0.000000000006943,   0.000000000006319 )   0.437715381525266
  WF centre and spread    5  (   0.000000000027675,  -0.000000000020206,   0.000000000018440 )   0.349392649697688
  WF centre and spread    6  (  -0.902511729208409,   0.902511729232537,   0.902511729299385 )   0.941252451793118
  WF centre and spread    7  (   0.902511729256703,  -0.902511729244796,  -0.902511729201143 )   0.941252451772236
  Sum of centres and spreads (   0.000000000084437,  -0.000000000054645,   0.000000000191408 )   3.806116287176111
 
      4    -0.141E-03     0.0102149023        3.8061162872       0.05  <-- CONV
        O_D=      0.0045939 O_OD=      0.3163888 O_TOT=      3.8061163 <-- SPRD
 Delta: O_D= -0.7247151E-04 O_OD= -0.6876779E-04 O_TOT= -0.1412393E-03 <-- DLTA
 ------------------------------------------------------------------------------
 Cycle:      5
  WF centre and spread    1  (   0.000000000007897,  -0.000000000005003,  -0.000000000002929 )   0.437703195012131
  WF centre and spread    2  (   0.000000000020093,  -0.000000000014082,   0.000000000057247 )   0.348814624445589
  WF centre and spread    3  (  -0.000000000015253,  -0.000000000010018,   0.000000000014087 )   0.348814624441101
  WF centre and spread    4  (  -0.000000000004394,   0.000000000006862,   0.000000000006331 )   0.437713392441365
  WF centre and spread    5  (   0.000000000027651,  -0.000000000020107,   0.000000000018359 )   0.348810150493730
  WF centre and spread    6  (  -0.902511729208393,   0.902511729232677,   0.902511729299376 )   0.942098121724286
  WF centre and spread    7  (   0.902511729256665,  -0.902511729244699,  -0.902511729201021 )   0.942098121702726
  Sum of centres and spreads (   0.000000000084266,  -0.000000000054370,   0.000000000191450 )   3.806052230260928
 
      5    -0.641E-04     0.0049518208        3.8060522303       0.05  <-- CONV
        O_D=      0.0046105 O_OD=      0.3163081 O_TOT=      3.8060522 <-- SPRD
 Delta: O_D=  0.1664811E-04 O_OD= -0.8070503E-04 O_TOT= -0.6405692E-04 <-- DLTA
 ------------------------------------------------------------------------------
 Cycle:      6
  WF centre and spread    1  (   0.000000000007935,  -0.000000000005029,  -0.000000000002865 )   0.437710891215198
  WF centre and spread    2  (   0.000000000020101,  -0.000000000014101,   0.000000000057267 )   0.348700898003378
  WF centre and spread    3  (  -0.000000000015201,  -0.000000000010026,   0.000000000014107 )   0.348700897998840
  WF centre and spread    4  (  -0.000000000004332,   0.000000000006798,   0.000000000006322 )   0.437718843912208
  WF centre and spread    5  (   0.000000000027672,  -0.000000000020101,   0.000000000018402 )   0.348697637017096
  WF centre and spread    6  (  -0.902511729208133,   0.902511729232647,   0.902511729299745 )   0.942257255364962
  WF centre and spread    7  (   0.902511729256987,  -0.902511729244822,  -0.902511729200876 )   0.942257255343218
  Sum of centres and spreads (   0.000000000085028,  -0.000000000054634,   0.000000000192102 )   3.806043678854900
 
      6    -0.855E-05     0.0023148687        3.8060436789       0.05  <-- CONV
        O_D=      0.0046482 O_OD=      0.3162619 O_TOT=      3.8060437 <-- SPRD
 Delta: O_D=  0.3766751E-04 O_OD= -0.4621892E-04 O_TOT= -0.8551406E-05 <-- DLTA
 ------------------------------------------------------------------------------
 Cycle:      7
  WF centre and spread    1  (   0.000000000007926,  -0.000000000005023,  -0.000000000002905 )   0.437712290045530
  WF centre and spread    2  (   0.000000000020083,  -0.000000000014079,   0.000000000057252 )   0.348702528135042
  WF centre and spread    3  (  -0.000000000015237,  -0.000000000010023,   0.000000000014093 )   0.348702528130505
  WF centre and spread    4  (  -0.000000000004369,   0.000000000006808,   0.000000000006329 )   0.437719524394042
  WF centre and spread    5  (   0.000000000027658,  -0.000000000020082,   0.000000000018356 )   0.348699203126983
  WF centre and spread    6  (  -0.902511729208304,   0.902511729232724,   0.902511729299480 )   0.942253461854153
  WF centre and spread    7  (   0.902511729256737,  -0.902511729244677,  -0.902511729201011 )   0.942253461832307
  Sum of centres and spreads (   0.000000000084495,  -0.000000000054352,   0.000000000191594 )   3.806042997518562
 
      7    -0.681E-06     0.0008092584        3.8060429975       0.05  <-- CONV
        O_D=      0.0046486 O_OD=      0.3162608 O_TOT=      3.8060430 <-- SPRD
 Delta: O_D=  0.3581917E-06 O_OD= -0.1039528E-05 O_TOT= -0.6813363E-06 <-- DLTA
 ------------------------------------------------------------------------------
 Cycle:      8
  WF centre and spread    1  (   0.000000000007933,  -0.000000000005026,  -0.000000000002890 )   0.437713138781759
  WF centre and spread    2  (   0.000000000020087,  -0.000000000014085,   0.000000000057260 )   0.348702816233779
  WF centre and spread    3  (  -0.000000000015217,  -0.000000000010027,   0.000000000014091 )   0.348702816229247
  WF centre and spread    4  (  -0.000000000004354,   0.000000000006795,   0.000000000006324 )   0.437719842230466
  WF centre and spread    5  (   0.000000000027663,  -0.000000000020086,   0.000000000018373 )   0.348699508066873
  WF centre and spread    6  (  -0.902511729208237,   0.902511729232704,   0.902511729299576 )   0.942252402671923
  WF centre and spread    7  (   0.902511729256835,  -0.902511729244715,  -0.902511729200965 )   0.942252402650079
  Sum of centres and spreads (   0.000000000084710,  -0.000000000054440,   0.000000000191770 )   3.806042926864126
 
      8    -0.707E-07     0.0002247358        3.8060429269       0.05  <-- CONV
        O_D=      0.0046495 O_OD=      0.3162598 O_TOT=      3.8060429 <-- SPRD
 Delta: O_D=  0.9502627E-06 O_OD= -0.1020917E-05 O_TOT= -0.7065443E-07 <-- DLTA
 ------------------------------------------------------------------------------
 Cycle:      9
  WF centre and spread    1  (   0.000000000007931,  -0.000000000005025,  -0.000000000002903 )   0.437713184654457
  WF centre and spread    2  (   0.000000000020084,  -0.000000000014081,   0.000000000057257 )   0.348703105190917
  WF centre and spread    3  (  -0.000000000015225,  -0.000000000010025,   0.000000000014089 )   0.348703105186388
  WF centre and spread    4  (  -0.000000000004364,   0.000000000006797,   0.000000000006326 )   0.437719837663886
  WF centre and spread    5  (   0.000000000027660,  -0.000000000020084,   0.000000000018364 )   0.348699803856335
  WF centre and spread    6  (  -0.902511729208273,   0.902511729232722,   0.902511729299525 )   0.942251944418564
  WF centre and spread    7  (   0.902511729256783,  -0.902511729244688,  -0.902511729200995 )   0.942251944396719
  Sum of centres and spreads (   0.000000000084597,  -0.000000000054383,   0.000000000191663 )   3.806042925367267
 
      9    -0.150E-08     0.0000378526        3.8060429254       0.05  <-- CONV
        O_D=      0.0046495 O_OD=      0.3162599 O_TOT=      3.8060429 <-- SPRD
 Delta: O_D= -0.2997382E-07 O_OD=  0.2847697E-07 O_TOT= -0.1496848E-08 <-- DLTA
 ------------------------------------------------------------------------------
 Cycle:     10
  WF centre and spread    1  (   0.000000000007932,  -0.000000000005026,  -0.000000000002900 )   0.437713198867271
  WF centre and spread    2  (   0.000000000020086,  -0.000000000014083,   0.000000000057259 )   0.348703527351674
  WF centre and spread    3  (  -0.000000000015219,  -0.000000000010026,   0.000000000014088 )   0.348703527347149
  WF centre and spread    4  (  -0.000000000004360,   0.000000000006793,   0.000000000006325 )   0.437719835248965
  WF centre and spread    5  (   0.000000000027661,  -0.000000000020085,   0.000000000018370 )   0.348700225324546
  WF centre and spread    6  (  -0.902511729208252,   0.902511729232715,   0.902511729299554 )   0.942251305582598
  WF centre and spread    7  (   0.902511729256813,  -0.902511729244699,  -0.902511729200976 )   0.942251305560768
  Sum of centres and spreads (   0.000000000084661,  -0.000000000054411,   0.000000000191720 )   3.806042925282970
 
     10    -0.843E-10     0.0000068552        3.8060429253       0.05  <-- CONV
        O_D=      0.0046494 O_OD=      0.3162599 O_TOT=      3.8060429 <-- SPRD
 Delta: O_D= -0.7721726E-07 O_OD=  0.7713298E-07 O_TOT= -0.8427969E-10 <-- DLTA
 ------------------------------------------------------------------------------
 Cycle:     11
  WF centre and spread    1  (   0.000000000007930,  -0.000000000005026,  -0.000000000002911 )   0.437713203665328
  WF centre and spread    2  (   0.000000000020084,  -0.000000000014080,   0.000000000057258 )   0.348703921345676
  WF centre and spread    3  (  -0.000000000015223,  -0.000000000010025,   0.000000000014086 )   0.348703921341153
  WF centre and spread    4  (  -0.000000000004367,   0.000000000006794,   0.000000000006326 )   0.437719835914296
  WF centre and spread    5  (   0.000000000027659,  -0.000000000020084,   0.000000000018364 )   0.348700614488511
  WF centre and spread    6  (  -0.902511729208273,   0.902511729232728,   0.902511729299524 )   0.942250714255967
  WF centre and spread    7  (   0.902511729256781,  -0.902511729244682,  -0.902511729200994 )   0.942250714234147
  Sum of centres and spreads (   0.000000000084591,  -0.000000000054376,   0.000000000191653 )   3.806042925245078
 
     11    -0.379E-10     0.0000043029        3.8060429253       0.05  <-- CONV
        O_D=      0.0046494 O_OD=      0.3162600 O_TOT=      3.8060429 <-- SPRD
 Delta: O_D= -0.2994923E-07 O_OD=  0.2991133E-07 O_TOT= -0.3789280E-10 <-- DLTA
 ------------------------------------------------------------------------------
 Cycle:     12
  WF centre and spread    1  (   0.000000000007931,  -0.000000000005026,  -0.000000000002906 )   0.437713197005470
  WF centre and spread    2  (   0.000000000020085,  -0.000000000014082,   0.000000000057259 )   0.348703973101867
  WF centre and spread    3  (  -0.000000000015219,  -0.000000000010026,   0.000000000014086 )   0.348703973097342
  WF centre and spread    4  (  -0.000000000004363,   0.000000000006791,   0.000000000006325 )   0.437719834024626
  WF centre and spread    5  (   0.000000000027660,  -0.000000000020085,   0.000000000018368 )   0.348700665522378
  WF centre and spread    6  (  -0.902511729208255,   0.902511729232719,   0.902511729299549 )   0.942250641255936
  WF centre and spread    7  (   0.902511729256806,  -0.902511729244693,  -0.902511729200978 )   0.942250641234120
  Sum of centres and spreads (   0.000000000084645,  -0.000000000054402,   0.000000000191704 )   3.806042925241738
 
     12    -0.334E-11     0.0000015687        3.8060429253       0.05  <-- CONV
        O_D=      0.0046494 O_OD=      0.3162600 O_TOT=      3.8060429 <-- SPRD
 Delta: O_D=  0.1306806E-08 O_OD= -0.1310141E-08 O_TOT= -0.3335110E-11 <-- DLTA
 ------------------------------------------------------------------------------
 Cycle:     13
  WF centre and spread    1  (   0.000000000007931,  -0.000000000005026,  -0.000000000002907 )   0.437713196894874
  WF centre and spread    2  (   0.000000000020085,  -0.000000000014082,   0.000000000057259 )   0.348703973270634
  WF centre and spread    3  (  -0.000000000015219,  -0.000000000010026,   0.000000000014086 )   0.348703973266108
  WF centre and spread    4  (  -0.000000000004363,   0.000000000006791,   0.000000000006325 )   0.437719834022039
  WF centre and spread    5  (   0.000000000027660,  -0.000000000020085,   0.000000000018368 )   0.348700665703163
  WF centre and spread    6  (  -0.902511729208256,   0.902511729232720,   0.902511729299548 )   0.942250641053357
  WF centre and spread    7  (   0.902511729256805,  -0.902511729244692,  -0.902511729200978 )   0.942250641031542
  Sum of centres and spreads (   0.000000000084643,  -0.000000000054400,   0.000000000191702 )   3.806042925241718
 
     13    -0.173E-13     0.0000003276        3.8060429253       0.05  <-- CONV
        O_D=      0.0046494 O_OD=      0.3162600 O_TOT=      3.8060429 <-- SPRD
 Delta: O_D=  0.7660644E-10 O_OD= -0.7662387E-10 O_TOT= -0.1731948E-13 <-- DLTA
 ------------------------------------------------------------------------------
 Cycle:     14
  WF centre and spread    1  (   0.000000000007930,  -0.000000000005026,  -0.000000000002910 )   0.437713195186885
  WF centre and spread    2  (   0.000000000020085,  -0.000000000014081,   0.000000000057258 )   0.348703975929542
  WF centre and spread    3  (  -0.000000000015222,  -0.000000000010025,   0.000000000014086 )   0.348703975925016
  WF centre and spread    4  (  -0.000000000004366,   0.000000000006792,   0.000000000006326 )   0.437719833991835
  WF centre and spread    5  (   0.000000000027659,  -0.000000000020084,   0.000000000018366 )   0.348700668546063
  WF centre and spread    6  (  -0.902511729208267,   0.902511729232725,   0.902511729299533 )   0.942250637842033
  WF centre and spread    7  (   0.902511729256790,  -0.902511729244685,  -0.902511729200988 )   0.942250637820216
  Sum of centres and spreads (   0.000000000084609,  -0.000000000054384,   0.000000000191670 )   3.806042925241586
 
     14    -0.139E-12     0.0000003087        3.8060429253       0.05  <-- CONV
        O_D=      0.0046494 O_OD=      0.3162600 O_TOT=      3.8060429 <-- SPRD
 Delta: O_D=  0.1176824E-08 O_OD= -0.1176964E-08 O_TOT= -0.1389999E-12 <-- DLTA
 ------------------------------------------------------------------------------
 Cycle:     15
  WF centre and spread    1  (   0.000000000007930,  -0.000000000005026,  -0.000000000002910 )   0.437713195165959
  WF centre and spread    2  (   0.000000000020085,  -0.000000000014081,   0.000000000057258 )   0.348703976063097
  WF centre and spread    3  (  -0.000000000015222,  -0.000000000010025,   0.000000000014086 )   0.348703976058570
  WF centre and spread    4  (  -0.000000000004366,   0.000000000006792,   0.000000000006326 )   0.437719834009798
  WF centre and spread    5  (   0.000000000027659,  -0.000000000020084,   0.000000000018366 )   0.348700668678771
  WF centre and spread    6  (  -0.902511729208267,   0.902511729232725,   0.902511729299534 )   0.942250637643601
  WF centre and spread    7  (   0.902511729256790,  -0.902511729244686,  -0.902511729200988 )   0.942250637621787
  Sum of centres and spreads (   0.000000000084610,  -0.000000000054385,   0.000000000191672 )   3.806042925241583
 
     15    -0.133E-14     0.0000000779        3.8060429253       0.05  <-- CONV
        O_D=      0.0046494 O_OD=      0.3162600 O_TOT=      3.8060429 <-- SPRD
 Delta: O_D=  0.2434452E-11 O_OD= -0.2435496E-11 O_TOT= -0.1332268E-14 <-- DLTA
 ------------------------------------------------------------------------------
 Cycle:     16
  WF centre and spread    1  (   0.000000000007931,  -0.000000000005026,  -0.000000000002910 )   0.437713195140208
  WF centre and spread    2  (   0.000000000020085,  -0.000000000014081,   0.000000000057258 )   0.348703976293649
  WF centre and spread    3  (  -0.000000000015221,  -0.000000000010026,   0.000000000014086 )   0.348703976289121
  WF centre and spread    4  (  -0.000000000004366,   0.000000000006792,   0.000000000006326 )   0.437719834043320
  WF centre and spread    5  (   0.000000000027659,  -0.000000000020085,   0.000000000018366 )   0.348700668906339
  WF centre and spread    6  (  -0.902511729208266,   0.902511729232724,   0.902511729299535 )   0.942250637295378
  WF centre and spread    7  (   0.902511729256792,  -0.902511729244686,  -0.902511729200987 )   0.942250637273565
  Sum of centres and spreads (   0.000000000084613,  -0.000000000054387,   0.000000000191675 )   3.806042925241581
 
     16    -0.178E-14     0.0000000738        3.8060429253       0.05  <-- CONV
        O_D=      0.0046494 O_OD=      0.3162600 O_TOT=      3.8060429 <-- SPRD
 Delta: O_D= -0.4678035E-11 O_OD=  0.4676204E-11 O_TOT= -0.1776357E-14 <-- DLTA
 ------------------------------------------------------------------------------
 Cycle:     17
  WF centre and spread    1  (   0.000000000007931,  -0.000000000005026,  -0.000000000002910 )   0.437713195113664
  WF centre and spread    2  (   0.000000000020085,  -0.000000000014081,   0.000000000057258 )   0.348703976585433
  WF centre and spread    3  (  -0.000000000015221,  -0.000000000010026,   0.000000000014086 )   0.348703976580905
  WF centre and spread    4  (  -0.000000000004366,   0.000000000006792,   0.000000000006326 )   0.437719834086119
  WF centre and spread    5  (   0.000000000027659,  -0.000000000020085,   0.000000000018366 )   0.348700669193630
  WF centre and spread    6  (  -0.902511729208265,   0.902511729232724,   0.902511729299537 )   0.942250636851819
  WF centre and spread    7  (   0.902511729256794,  -0.902511729244687,  -0.902511729200986 )   0.942250636830005
  Sum of centres and spreads (   0.000000000084617,  -0.000000000054389,   0.000000000191678 )   3.806042925241576
 
     17    -0.222E-14     0.0000000662        3.8060429253       0.05  <-- CONV
        O_D=      0.0046494 O_OD=      0.3162600 O_TOT=      3.8060429 <-- SPRD
 Delta: O_D= -0.1078482E-10 O_OD=  0.1078287E-10 O_TOT= -0.2220446E-14 <-- DLTA
 ------------------------------------------------------------------------------

             <<<     Delta < 1.000E-12  over  5 iterations     >>>
             <<< Wannierisation convergence criteria satisfied >>>

 Final State
  WF centre and spread    1  (   0.000000000007931,  -0.000000000005026,  -0.000000000002910 )   0.437713195113664
  WF centre and spread    2  (   0.000000000020085,  -0.000000000014081,   0.000000000057258 )   0.348703976585433
  WF centre and spread    3  (  -0.000000000015221,  -0.000000000010026,   0.000000000014086 )   0.348703976580905
  WF centre and spread    4  (  -0.000000000004366,   0.000000000006792,   0.000000000006326 )   0.437719834086119
  WF centre and spread    5  (   0.000000000027659,  -0.000000000020085,   0.000000000018366 )   0.348700669193630
  WF centre and spread    6  (  -0.902511729208265,   0.902511729232724,   0.902511729299537 )   0.942250636851819
  WF centre and spread    7  (   0.902511729256794,  -0.902511729244687,  -0.902511729200986 )   0.942250636830005
  Sum of centres and spreads (   0.000000000084617,  -0.000000000054389,   0.000000000191678 )   3.806042925241576
 
         Spreads (Ang^2)       Omega I      =     3.485133594
        ================       Omega D      =     0.004649371
                               Omega OD     =     0.316259960
    Final Spread (Ang^2)       Omega Total  =     3.806042925
 ------------------------------------------------------------------------------
 Time for wannierise            0.011 (sec)

 Writing checkpoint file Cu.chk... done

 *---------------------------------------------------------------------------*
 |                               PLOTTING                                    |
 *---------------------------------------------------------------------------*
 
 
 Calculating interpolated band-structure
 
 Time to calculate interpolated band structure       0.134 (sec)
 
 Time for plotting              0.144 (sec)
 Total Execution Time           0.260 (sec)

 *===========================================================================*
 |                             TIMING INFORMATION                            |
 *===========================================================================*
 |    Tag                                                Ncalls      Time (s)|
 |---------------------------------------------------------------------------|
 |kmesh: get                                        :         1         0.038|
 |overlap: allocate                                 :         1         0.000|
 |overlap: read                                     :         1         0.043|
 |dis: main                                         :         1         0.010|
 |wann: main                                        :         1         0.011|
 |plot: main                                        :         1         0.143|
 *---------------------------------------------------------------------------*
 
 All done: wannier90 exiting
