 
             +---------------------------------------------------+
             |                                                   |
             |                   WANNIER90                       |
             |                                                   |
             +---------------------------------------------------+
             |                                                   |
             |        Welcome to the Maximally-Localized         |
             |        Generalized Wannier Functions code         |
             |            http://www.wannier.org                 |
             |                                                   |
             |                                                   |
             |  Wannier90 Developer Group:                       |
             |    Giovanni Pizzi    (EPFL)                       |
             |    Valerio Vitale    (Cambridge)                  |
             |    David Vanderbilt  (Rutgers University)         |
             |    Nicola Marzari    (EPFL)                       |
             |    Ivo Souza         (Universidad del Pais Vasco) |
             |    Arash A. Mostofi  (Imperial College London)    |
             |    Jonathan R. Yates (University of Oxford)       |
             |                                                   |
             |  For the full list of Wannier90 3.x authors,      |
             |  please check the code documentation and the      |
             |  README on the GitHub page of the code            |
             |                                                   |
             |                                                   |
             |  Please cite                                      |
             |                                                   |
             |  [ref] "Wannier90 as a community code:            |
             |        new features and applications",            |
             |        G. Pizzi et al., J. Phys. Cond. Matt. 32,  |
             |        165902 (2020).                             |
             |        http://doi.org/10.1088/1361-648X/ab51ff    |
             |                                                   |
             |  in any publications arising from the use of      |
             |  this code. For the method please cite            |
             |                                                   |
             |  [ref] "Maximally Localized Generalised Wannier   |
             |         Functions for Composite Energy Bands"     |
             |         N. Marzari and D. Vanderbilt              |
             |         Phys. Rev. B 56 12847 (1997)              |
             |                                                   |
             |  [ref] "Maximally Localized Wannier Functions     |
             |         for Entangled Energy Bands"               |
             |         I. Souza, N. Marzari and D. Vanderbilt    |
             |         Phys. Rev. B 65 035109 (2001)             |
             |                                                   |
             |                                                   |
             | Copyright (c) 1996-2020                           |
             |        The Wannier90 Developer Group and          |
             |        individual contributors                    |
             |                                                   |
             |      Release: 3.1.0        5th March    2020      |
             |                                                   |
             | This program is free software; you can            |
             | redistribute it and/or modify it under the terms  |
             | of the GNU General Public License as published by |
             | the Free Software Foundation; either version 2 of |
             | the License, or (at your option) any later version|
             |                                                   |
             | This program is distributed in the hope that it   |
             | will be useful, but WITHOUT ANY WARRANTY; without |
             | even the implied warranty of MERCHANTABILITY or   |
             | FITNESS FOR A PARTICULAR PURPOSE. See the GNU     |
             | General Public License for more details.          |
             |                                                   |
             | You should have received a copy of the GNU General|
             | Public License along with this program; if not,   |
             | write to the Free Software Foundation, Inc.,      |
             | 675 Mass Ave, Cambridge, MA 02139, USA.           |
             |                                                   |
             +---------------------------------------------------+
             |    Execution started on  4Jul2022 at 22:03:57     |
             +---------------------------------------------------+
 
 ******************************************************************************
 * -> Using CODATA 2006 constant values                                       *
 *    (http://physics.nist.gov/cuu/Constants/index.html)                      *
 * -> Using Bohr value from CODATA                                            *
 ******************************************************************************
 

 Running in parallel on  16 CPUs

 
                                    ------
                                    SYSTEM
                                    ------
 
                              Lattice Vectors (Ang)
                    a_1    -1.805023   0.000000   1.805023
                    a_2     0.000000   1.805023   1.805023
                    a_3    -1.805023   1.805023   0.000000
 
                   Unit Cell Volume:      11.76193  (Ang^3)
 
                        Reciprocal-Space Vectors (Ang^-1)
                    b_1    -1.740472  -1.740472   1.740472
                    b_2     1.740472   1.740472   1.740472
                    b_3    -1.740472   1.740472  -1.740472
  
 *----------------------------------------------------------------------------*
 |   Site       Fractional Coordinate          Cartesian Coordinate (Ang)     |
 +----------------------------------------------------------------------------+
 | Cu   1   0.00000   0.00000   0.00000   |    0.00000   0.00000   0.00000    |
 *----------------------------------------------------------------------------*
                                ------------
                                K-POINT GRID
                                ------------
  
             Grid size =  3 x  3 x  3      Total points =   27
  
  
 *---------------------------------- MAIN ------------------------------------*
 |  Number of Wannier Functions               :                 7             |
 |  Number of Objective Wannier Functions     :                 7             |
 |  Number of input Bloch states              :                10             |
 |  Output verbosity (1=low, 5=high)          :                 1             |
 |  Timing Level (1=low, 5=high)              :                 1             |
 |  Optimisation (0=memory, 3=speed)          :                 3             |
 |  Length Unit                               :               Ang             |
 |  Post-processing setup (write *.nnkp)      :                 F             |
 |  Using Gamma-only branch of algorithms     :                 F             |
 *----------------------------------------------------------------------------*
 *------------------------------- WANNIERISE ---------------------------------*
 |  Total number of iterations                :               100             |
 |  Number of CG steps before reset           :                 5             |
 |  Trial step length for line search         :             2.000             |
 |  Convergence tolerence                     :         0.100E-11             |
 |  Convergence window                        :                 5             |
 |  Iterations between writing output         :                 1             |
 |  Iterations between backing up to disk     :               100             |
 |  Write r^2_nm to file                      :                 F             |
 |  Write xyz WF centres to file              :                 F             |
 |  Write on-site energies <0n|H|0n> to file  :                 F             |
 |  Use guiding centre to control phases      :                 F             |
 |  Use phases for initial projections        :                 F             |
 *----------------------------------------------------------------------------*
 *------------------------------- DISENTANGLE --------------------------------*
 |  Using band disentanglement                :                 T             |
 |  Total number of iterations                :               100             |
 |  Mixing ratio                              :             1.000             |
 |  Convergence tolerence                     :         1.000E-10             |
 |  Convergence window                        :                 3             |
 *----------------------------------------------------------------------------*
 *-------------------------------- PLOTTING ----------------------------------*
 |  Plotting interpolated bandstructure       :                 T             |
 |   Number of K-path sections                :                 5             |
 |   Divisions along first K-path section     :               100             |
 |   Output format                            :           gnuplot             |
 |   Output mode                              :               s-k             |
 *----------------------------------------------------------------------------*
 |   K-space path sections:                                                   |
 |    From: G       0.000  0.000  0.000     To: X       0.500  0.500  0.000   |
 |    From: X       0.500  0.500  0.000     To: W       0.500  0.750  0.250   |
 |    From: W       0.500  0.750  0.250     To: L       0.000  0.500  0.000   |
 |    From: L       0.000  0.500  0.000     To: G       0.000  0.000  0.000   |
 |    From: G       0.000  0.000  0.000     To: K       0.000  0.500 -0.500   |
 *----------------------------------------------------------------------------*
 Time to read parameters        0.013 (sec)

 *---------------------------------- K-MESH ----------------------------------*
 +----------------------------------------------------------------------------+
 |                    Distance to Nearest-Neighbour Shells                    |
 |                    ------------------------------------                    |
 |          Shell             Distance (Ang^-1)          Multiplicity         |
 |          -----             -----------------          ------------         |
 |             1                   1.004862                      8            |
 |             2                   1.160315                      6            |
 |             3                   1.640933                     12            |
 |             4                   1.924164                     24            |
 |             5                   2.009724                      8            |
 |             6                   2.320629                      6            |
 |             7                   2.528847                     24            |
 |             8                   2.594542                     24            |
 |             9                   2.842179                     24            |
 |            10                   3.014586                     32            |
 |            11                   3.281865                     12            |
 |            12                   3.432257                     48            |
 |            13                   3.480944                     30            |
 |            14                   3.669237                     24            |
 |            15                   3.804346                     24            |
 |            16                   3.848328                     24            |
 |            17                   4.019448                      8            |
 |            18                   4.143152                     48            |
 |            19                   4.183574                     24            |
 |            20                   4.341500                     48            |
 |            21                   4.456273                     72            |
 |            22                   4.641258                      6            |
 |            23                   4.748792                     24            |
 |            24                   4.784100                     48            |
 |            25                   4.922798                     36            |
 |            26                   5.024310                     56            |
 |            27                   5.057694                     24            |
 |            28                   5.189085                     24            |
 |            29                   5.285485                     72            |
 |            30                   5.317230                     48            |
 |            31                   5.442358                     24            |
 |            32                   5.534348                     48            |
 |            33                   5.684358                     24            |
 |            34                   5.772492                     72            |
 |            35                   5.801573                     30            |
 |            36                   5.916467                     72            |
 +----------------------------------------------------------------------------+
 | The b-vectors are chosen automatically                                     |
 | The following shells are used:   1                                         |
 +----------------------------------------------------------------------------+
 |                        Shell   # Nearest-Neighbours                        |
 |                        -----   --------------------                        |
 |                          1               8                                 |
 +----------------------------------------------------------------------------+
 | Completeness relation is fully satisfied [Eq. (B1), PRB 56, 12847 (1997)]  |
 | Completeness relations for higher-order are fully satisfied                |
 +----------------------------------------------------------------------------+
 |                  b_k Vectors (Ang^-1) and Weights (Ang^2)                  |
 |                  ----------------------------------------                  |
 |            No.         b_k(x)      b_k(y)      b_k(z)        w_b           |
 |            ---        --------------------------------     --------        |
 |             1        -0.580157    0.580157   -0.580157     0.371380        |
 |             2         0.580157    0.580157    0.580157     0.371380        |
 |             3        -0.580157   -0.580157    0.580157     0.371380        |
 |             4        -0.580157    0.580157    0.580157     0.371380        |
 |             5         0.580157   -0.580157    0.580157     0.371380        |
 |             6        -0.580157   -0.580157   -0.580157     0.371380        |
 |             7         0.580157    0.580157   -0.580157     0.371380        |
 |             8         0.580157   -0.580157   -0.580157     0.371380        |
 +----------------------------------------------------------------------------+
 |                           b_k Directions (Ang^-1)                          |
 |                           -----------------------                          |
 |            No.           x           y           z                         |
 |            ---        --------------------------------                     |
 |             1        -0.580157    0.580157   -0.580157                     |
 |             2         0.580157    0.580157    0.580157                     |
 |             3        -0.580157   -0.580157    0.580157                     |
 |             4        -0.580157    0.580157    0.580157                     |
 +----------------------------------------------------------------------------+
  
 Time to get kmesh              0.035 (sec)
 *============================================================================*
 |                              MEMORY ESTIMATE                               |
 |         Maximum RAM allocated during each phase of the calculation         |
 *============================================================================*
 |                        Disentanglement            0.59 Mb                  |
 |                            Wannierise:            0.51 Mb                  |
 |                          plot_wannier:            0.51 Mb                  |
 *----------------------------------------------------------------------------*
  
 Starting a new Wannier90 calculation ...


 Reading overlaps from Cu.mmn    :  Created on  4Jul2022 at 21:53: 6

 Reading projections from Cu.amn :  Created on  4Jul2022 at 21:53: 5

 Time to read overlaps          0.042 (sec)

 *------------------------------- DISENTANGLE --------------------------------*
 +----------------------------------------------------------------------------+
 |                              Energy  Windows                               |
 |                              ---------------                               |
 |                   Outer:    8.00509  to   42.76033  (eV)                   |
 |                   No frozen states were specified                          |
 +----------------------------------------------------------------------------+
   Number of target bands to extract:    7

                   Unitarised projection of Wannier functions                  
                   ------------------------------------------                  
   A_mn = <psi_m|g_n> --> S = A.A^+ --> U = S^-1/2.A
   In dis_project... done
   No inner window (linner = F)

                   Extraction of optimally-connected subspace                  
                   ------------------------------------------                  
 +---------------------------------------------------------------------+<-- DIS
 |  Iter     Omega_I(i-1)      Omega_I(i)      Delta (frac.)    Time   |<-- DIS
 +---------------------------------------------------------------------+<-- DIS
       1       3.63228632       3.33831242       8.806E-02      0.00    <-- DIS
       2       3.29828354       3.22153497       2.382E-02      0.00    <-- DIS
       3       3.20882228       3.18386747       7.838E-03      0.00    <-- DIS
       4       3.17954522       3.17107988       2.670E-03      0.00    <-- DIS
       5       3.16958784       3.16671526       9.071E-04      0.00    <-- DIS
       6       3.16620560       3.16524071       3.048E-04      0.00    <-- DIS
       7       3.16506640       3.16474371       1.020E-04      0.00    <-- DIS
       8       3.16468433       3.16457697       3.393E-05      0.00    <-- DIS
       9       3.16455669       3.16452103       1.127E-05      0.00    <-- DIS
      10       3.16451410       3.16450228       3.733E-06      0.00    <-- DIS
      11       3.16449991       3.16449600       1.236E-06      0.00    <-- DIS
      12       3.16449518       3.16449388       4.084E-07      0.00    <-- DIS
      13       3.16449360       3.16449317       1.348E-07      0.00    <-- DIS
      14       3.16449308       3.16449293       4.446E-08      0.01    <-- DIS
      15       3.16449290       3.16449285       1.464E-08      0.01    <-- DIS
      16       3.16449284       3.16449283       4.812E-09      0.01    <-- DIS
      17       3.16449282       3.16449282       1.579E-09      0.01    <-- DIS
      18       3.16449282       3.16449281       5.168E-10      0.01    <-- DIS
      19       3.16449281       3.16449281       1.687E-10      0.01    <-- DIS
      20       3.16449281       3.16449281       5.489E-11      0.01    <-- DIS
      21       3.16449281       3.16449281       1.779E-11      0.01    <-- DIS
      22       3.16449281       3.16449281       5.734E-12      0.01    <-- DIS

             <<<      Delta < 1.000E-10  over  3 iterations     >>>
             <<< Disentanglement convergence criteria satisfied >>>

        Final Omega_I     3.16449281 (Ang^2)

 +----------------------------------------------------------------------------+

 Time to disentangle bands      0.015 (sec)

 Writing checkpoint file Cu.chk... done

 
 *------------------------------- WANNIERISE ---------------------------------*
 +--------------------------------------------------------------------+<-- CONV
 | Iter  Delta Spread     RMS Gradient      Spread (Ang^2)      Time  |<-- CONV
 +--------------------------------------------------------------------+<-- CONV
 
 ------------------------------------------------------------------------------
 Initial State
  WF centre and spread    1  (   0.000000000002652,  -0.000000000002998,   0.000000000001349 )   0.339561852248263
  WF centre and spread    2  (   0.000000000019681,  -0.000000000012192,   0.000000000061457 )   0.381472613871297
  WF centre and spread    3  (  -0.000000000011515,  -0.000000000004868,   0.000000000013726 )   0.381472613859200
  WF centre and spread    4  (  -0.000000000002423,   0.000000000001065,   0.000000000005847 )   0.339440774578313
  WF centre and spread    5  (   0.000000000020852,  -0.000000000014854,   0.000000000011900 )   0.381472372159243
  WF centre and spread    6  (  -0.902511729183152,   0.902511729180833,   0.902511729351615 )   0.985518656361191
  WF centre and spread    7  (   0.902511729209542,  -0.902511729223633,  -0.902511729128041 )   0.985518656341439
  Sum of centres and spreads (   0.000000000055636,  -0.000000000076648,   0.000000000317854 )   3.794457539418946
 
      0     0.379E+01     0.0000000000        3.7944575394       0.08  <-- CONV
        O_D=      0.0070256 O_OD=      0.6229391 O_TOT=      3.7944575 <-- SPRD
 ------------------------------------------------------------------------------
 Cycle:      1
  WF centre and spread    1  (   0.000000000003130,  -0.000000000004392,  -0.000000000003500 )   0.338458963248011
  WF centre and spread    2  (   0.000000000022712,  -0.000000000014259,   0.000000000063407 )   0.321711677651933
  WF centre and spread    3  (  -0.000000000015049,  -0.000000000011628,   0.000000000016898 )   0.321711677635542
  WF centre and spread    4  (  -0.000000000004632,  -0.000000000000324,   0.000000000005789 )   0.338236234285065
  WF centre and spread    5  (   0.000000000028402,  -0.000000000023130,   0.000000000017704 )   0.321716167914140
  WF centre and spread    6  (  -0.902511729181293,   0.902511729187108,   0.902511729353205 )   0.873118465994801
  WF centre and spread    7  (   0.902511729205790,  -0.902511729217103,  -0.902511729121223 )   0.873118465982191
  Sum of centres and spreads (   0.000000000059060,  -0.000000000083728,   0.000000000332280 )   3.388071652711684
 
      1    -0.406E+00     0.3641833022        3.3880716527       0.09  <-- CONV
        O_D=      0.0089646 O_OD=      0.2146142 O_TOT=      3.3880717 <-- SPRD
 Delta: O_D=  0.1939006E-02 O_OD= -0.4083249E+00 O_TOT= -0.4063859E+00 <-- DLTA
 ------------------------------------------------------------------------------
 Cycle:      2
  WF centre and spread    1  (   0.000000000003133,  -0.000000000003980,  -0.000000000005435 )   0.332986756817218
  WF centre and spread    2  (   0.000000000022896,  -0.000000000013546,   0.000000000065080 )   0.323928173374010
  WF centre and spread    3  (  -0.000000000015832,  -0.000000000012594,   0.000000000019406 )   0.323928173368735
  WF centre and spread    4  (  -0.000000000004687,  -0.000000000000166,   0.000000000005756 )   0.332956852940397
  WF centre and spread    5  (   0.000000000029521,  -0.000000000025106,   0.000000000017173 )   0.323928827607184
  WF centre and spread    6  (  -0.902511729181998,   0.902511729189604,   0.902511729353636 )   0.835062020729294
  WF centre and spread    7  (   0.902511729207679,  -0.902511729216295,  -0.902511729120771 )   0.835062020713923
  Sum of centres and spreads (   0.000000000060712,  -0.000000000082083,   0.000000000334844 )   3.307852825550760
 
      2    -0.802E-01     0.2364641951        3.3078528256       0.09  <-- CONV
        O_D=      0.0085152 O_OD=      0.1348448 O_TOT=      3.3078528 <-- SPRD
 Delta: O_D= -0.4494513E-03 O_OD= -0.7976938E-01 O_TOT= -0.8021883E-01 <-- DLTA
 ------------------------------------------------------------------------------
 Cycle:      3
  WF centre and spread    1  (   0.000000000003125,  -0.000000000003798,  -0.000000000005460 )   0.333087194623512
  WF centre and spread    2  (   0.000000000022348,  -0.000000000013606,   0.000000000065039 )   0.323516403686745
  WF centre and spread    3  (  -0.000000000015872,  -0.000000000012580,   0.000000000019523 )   0.323516403684695
  WF centre and spread    4  (  -0.000000000004542,  -0.000000000000149,   0.000000000005759 )   0.333084110247344
  WF centre and spread    5  (   0.000000000029869,  -0.000000000025773,   0.000000000016854 )   0.323516329128569
  WF centre and spread    6  (  -0.902511729182004,   0.902511729189427,   0.902511729353158 )   0.831903990098996
  WF centre and spread    7  (   0.902511729207688,  -0.902511729215684,  -0.902511729120923 )   0.831903990082190
  Sum of centres and spreads (   0.000000000060612,  -0.000000000082163,   0.000000000333951 )   3.300528421552050
 
      3    -0.732E-02     0.0833915094        3.3005284216       0.09  <-- CONV
        O_D=      0.0084563 O_OD=      0.1275793 O_TOT=      3.3005284 <-- SPRD
 Delta: O_D= -0.5885715E-04 O_OD= -0.7265547E-02 O_TOT= -0.7324404E-02 <-- DLTA
 ------------------------------------------------------------------------------
 Cycle:      4
  WF centre and spread    1  (   0.000000000003154,  -0.000000000003824,  -0.000000000005289 )   0.333063596898858
  WF centre and spread    2  (   0.000000000022223,  -0.000000000013729,   0.000000000065121 )   0.322391617861804
  WF centre and spread    3  (  -0.000000000015858,  -0.000000000012500,   0.000000000019699 )   0.322391617859731
  WF centre and spread    4  (  -0.000000000004481,  -0.000000000000127,   0.000000000005754 )   0.333065217600893
  WF centre and spread    5  (   0.000000000029833,  -0.000000000025690,   0.000000000016935 )   0.322392596508188
  WF centre and spread    6  (  -0.902511729181829,   0.902511729189298,   0.902511729353385 )   0.833431559780458
  WF centre and spread    7  (   0.902511729207798,  -0.902511729215738,  -0.902511729120925 )   0.833431559762688
  Sum of centres and spreads (   0.000000000060839,  -0.000000000082310,   0.000000000334679 )   3.300167766272621
 
      4    -0.361E-03     0.0122116407        3.3001677663       0.09  <-- CONV
        O_D=      0.0084678 O_OD=      0.1272072 O_TOT=      3.3001678 <-- SPRD
 Delta: O_D=  0.1148907E-04 O_OD= -0.3721444E-03 O_TOT= -0.3606553E-03 <-- DLTA
 ------------------------------------------------------------------------------
 Cycle:      5
  WF centre and spread    1  (   0.000000000003174,  -0.000000000003838,  -0.000000000005211 )   0.333052186363257
  WF centre and spread    2  (   0.000000000022218,  -0.000000000013618,   0.000000000065137 )   0.321724174702690
  WF centre and spread    3  (  -0.000000000015854,  -0.000000000012447,   0.000000000019813 )   0.321724174700446
  WF centre and spread    4  (  -0.000000000004434,  -0.000000000000137,   0.000000000005758 )   0.333053519127556
  WF centre and spread    5  (   0.000000000029708,  -0.000000000025487,   0.000000000016846 )   0.321724285235861
  WF centre and spread    6  (  -0.902511729181853,   0.902511729189446,   0.902511729353140 )   0.834383359635833
  WF centre and spread    7  (   0.902511729207696,  -0.902511729215564,  -0.902511729121105 )   0.834383359617369
  Sum of centres and spreads (   0.000000000060655,  -0.000000000081644,   0.000000000334378 )   3.300045059383013
 
      5    -0.123E-03     0.0082726023        3.3000450594       0.09  <-- CONV
        O_D=      0.0084758 O_OD=      0.1270765 O_TOT=      3.3000451 <-- SPRD
 Delta: O_D=  0.7998821E-05 O_OD= -0.1307057E-03 O_TOT= -0.1227069E-03 <-- DLTA
 ------------------------------------------------------------------------------
 Cycle:      6
  WF centre and spread    1  (   0.000000000003171,  -0.000000000003835,  -0.000000000005221 )   0.333055981446687
  WF centre and spread    2  (   0.000000000022240,  -0.000000000013630,   0.000000000065178 )   0.321609956175253
  WF centre and spread    3  (  -0.000000000015829,  -0.000000000012465,   0.000000000019850 )   0.321609956172956
  WF centre and spread    4  (  -0.000000000004430,  -0.000000000000134,   0.000000000005759 )   0.333056297887675
  WF centre and spread    5  (   0.000000000029714,  -0.000000000025482,   0.000000000016880 )   0.321609906392977
  WF centre and spread    6  (  -0.902511729181744,   0.902511729189347,   0.902511729353309 )   0.834542452033572
  WF centre and spread    7  (   0.902511729207778,  -0.902511729215666,  -0.902511729120969 )   0.834542452015123
  Sum of centres and spreads (   0.000000000060901,  -0.000000000081865,   0.000000000334786 )   3.300027002124244
 
      6    -0.181E-04     0.0039293286        3.3000270021       0.09  <-- CONV
        O_D=      0.0084772 O_OD=      0.1270570 O_TOT=      3.3000270 <-- SPRD
 Delta: O_D=  0.1374203E-05 O_OD= -0.1943146E-04 O_TOT= -0.1805726E-04 <-- DLTA
 ------------------------------------------------------------------------------
 Cycle:      7
  WF centre and spread    1  (   0.000000000003170,  -0.000000000003835,  -0.000000000005213 )   0.333058090673855
  WF centre and spread    2  (   0.000000000022230,  -0.000000000013623,   0.000000000065156 )   0.321627810042757
  WF centre and spread    3  (  -0.000000000015838,  -0.000000000012458,   0.000000000019820 )   0.321627810040473
  WF centre and spread    4  (  -0.000000000004429,  -0.000000000000140,   0.000000000005759 )   0.333058087702064
  WF centre and spread    5  (   0.000000000029707,  -0.000000000025471,   0.000000000016862 )   0.321627794819710
  WF centre and spread    6  (  -0.902511729181777,   0.902511729189366,   0.902511729353280 )   0.834513471449357
  WF centre and spread    7  (   0.902511729207746,  -0.902511729215651,  -0.902511729120983 )   0.834513471431007
  Sum of centres and spreads (   0.000000000060810,  -0.000000000081811,   0.000000000334681 )   3.300026536159223
 
      7    -0.466E-06     0.0005469374        3.3000265362       0.09  <-- CONV
        O_D=      0.0084769 O_OD=      0.1270568 O_TOT=      3.3000265 <-- SPRD
 Delta: O_D= -0.2594087E-06 O_OD= -0.2065563E-06 O_TOT= -0.4659650E-06 <-- DLTA
 ------------------------------------------------------------------------------
 Cycle:      8
  WF centre and spread    1  (   0.000000000003167,  -0.000000000003833,  -0.000000000005220 )   0.333058269617417
  WF centre and spread    2  (   0.000000000022244,  -0.000000000013628,   0.000000000065162 )   0.321647433248812
  WF centre and spread    3  (  -0.000000000015827,  -0.000000000012468,   0.000000000019812 )   0.321647433246539
  WF centre and spread    4  (  -0.000000000004435,  -0.000000000000138,   0.000000000005759 )   0.333058155993966
  WF centre and spread    5  (   0.000000000029717,  -0.000000000025486,   0.000000000016876 )   0.321647385689835
  WF centre and spread    6  (  -0.902511729181752,   0.902511729189326,   0.902511729353373 )   0.834483870500137
  WF centre and spread    7  (   0.902511729207793,  -0.902511729215710,  -0.902511729120906 )   0.834483870481868
  Sum of centres and spreads (   0.000000000060906,  -0.000000000081938,   0.000000000334855 )   3.300026418778574
 
      8    -0.117E-06     0.0002330018        3.3000264188       0.09  <-- CONV
        O_D=      0.0084767 O_OD=      0.1270570 O_TOT=      3.3000264 <-- SPRD
 Delta: O_D= -0.2600778E-06 O_OD=  0.1426972E-06 O_TOT= -0.1173806E-06 <-- DLTA
 ------------------------------------------------------------------------------
 Cycle:      9
  WF centre and spread    1  (   0.000000000003168,  -0.000000000003835,  -0.000000000005211 )   0.333057615635814
  WF centre and spread    2  (   0.000000000022232,  -0.000000000013619,   0.000000000065139 )   0.321655565533684
  WF centre and spread    3  (  -0.000000000015841,  -0.000000000012456,   0.000000000019792 )   0.321655565531414
  WF centre and spread    4  (  -0.000000000004433,  -0.000000000000143,   0.000000000005759 )   0.333057576793257
  WF centre and spread    5  (   0.000000000029707,  -0.000000000025475,   0.000000000016855 )   0.321655546892933
  WF centre and spread    6  (  -0.902511729181805,   0.902511729189371,   0.902511729353286 )   0.834472261291618
  WF centre and spread    7  (   0.902511729207736,  -0.902511729215662,  -0.902511729120972 )   0.834472261273385
  Sum of centres and spreads (   0.000000000060764,  -0.000000000081818,   0.000000000334647 )   3.300026392952105
 
      9    -0.258E-07     0.0001188862        3.3000263930       0.09  <-- CONV
        O_D=      0.0084766 O_OD=      0.1270570 O_TOT=      3.3000264 <-- SPRD
 Delta: O_D= -0.8299291E-07 O_OD=  0.5716644E-07 O_TOT= -0.2582646E-07 <-- DLTA
 ------------------------------------------------------------------------------
 Cycle:     10
  WF centre and spread    1  (   0.000000000003166,  -0.000000000003833,  -0.000000000005219 )   0.333057768324228
  WF centre and spread    2  (   0.000000000022244,  -0.000000000013630,   0.000000000065157 )   0.321655880265810
  WF centre and spread    3  (  -0.000000000015830,  -0.000000000012467,   0.000000000019805 )   0.321655880263539
  WF centre and spread    4  (  -0.000000000004437,  -0.000000000000138,   0.000000000005759 )   0.333057740691511
  WF centre and spread    5  (   0.000000000029718,  -0.000000000025488,   0.000000000016877 )   0.321655873391304
  WF centre and spread    6  (  -0.902511729181766,   0.902511729189331,   0.902511729353362 )   0.834471624624481
  WF centre and spread    7  (   0.902511729207784,  -0.902511729215709,  -0.902511729120914 )   0.834471624606251
  Sum of centres and spreads (   0.000000000060879,  -0.000000000081935,   0.000000000334825 )   3.300026392167125
 
     10    -0.785E-09     0.0000242790        3.3000263922       0.09  <-- CONV
        O_D=      0.0084766 O_OD=      0.1270570 O_TOT=      3.3000264 <-- SPRD
 Delta: O_D= -0.7957613E-08 O_OD=  0.7172643E-08 O_TOT= -0.7849699E-09 <-- DLTA
 ------------------------------------------------------------------------------
 Cycle:     11
  WF centre and spread    1  (   0.000000000003167,  -0.000000000003834,  -0.000000000005215 )   0.333057803143012
  WF centre and spread    2  (   0.000000000022237,  -0.000000000013624,   0.000000000065147 )   0.321655891178975
  WF centre and spread    3  (  -0.000000000015836,  -0.000000000012461,   0.000000000019798 )   0.321655891176704
  WF centre and spread    4  (  -0.000000000004435,  -0.000000000000140,   0.000000000005759 )   0.333057778057589
  WF centre and spread    5  (   0.000000000029712,  -0.000000000025481,   0.000000000016865 )   0.321655884430056
  WF centre and spread    6  (  -0.902511729181788,   0.902511729189355,   0.902511729353317 )   0.834471572084329
  WF centre and spread    7  (   0.902511729207757,  -0.902511729215682,  -0.902511729120950 )   0.834471572066096
  Sum of centres and spreads (   0.000000000060815,  -0.000000000081868,   0.000000000334720 )   3.300026392136761
 
     11    -0.304E-10     0.0000053770        3.3000263921       0.09  <-- CONV
        O_D=      0.0084766 O_OD=      0.1270570 O_TOT=      3.3000264 <-- SPRD
 Delta: O_D= -0.2381999E-09 O_OD=  0.2078342E-09 O_TOT= -0.3036549E-10 <-- DLTA
 ------------------------------------------------------------------------------
 Cycle:     12
  WF centre and spread    1  (   0.000000000003167,  -0.000000000003834,  -0.000000000005217 )   0.333057807345162
  WF centre and spread    2  (   0.000000000022239,  -0.000000000013626,   0.000000000065150 )   0.321655890277877
  WF centre and spread    3  (  -0.000000000015834,  -0.000000000012463,   0.000000000019800 )   0.321655890275604
  WF centre and spread    4  (  -0.000000000004435,  -0.000000000000140,   0.000000000005759 )   0.333057782102029
  WF centre and spread    5  (   0.000000000029714,  -0.000000000025484,   0.000000000016869 )   0.321655883045707
  WF centre and spread    6  (  -0.902511729181781,   0.902511729189347,   0.902511729353330 )   0.834471569553756
  WF centre and spread    7  (   0.902511729207766,  -0.902511729215690,  -0.902511729120939 )   0.834471569535520
  Sum of centres and spreads (   0.000000000060836,  -0.000000000081888,   0.000000000334751 )   3.300026392135658
 
     12    -0.110E-11     0.0000009936        3.3000263921       0.09  <-- CONV
        O_D=      0.0084766 O_OD=      0.1270570 O_TOT=      3.3000264 <-- SPRD
 Delta: O_D= -0.4985953E-09 O_OD=  0.4974972E-09 O_TOT= -0.1097789E-11 <-- DLTA
 ------------------------------------------------------------------------------
 Cycle:     13
  WF centre and spread    1  (   0.000000000003167,  -0.000000000003834,  -0.000000000005217 )   0.333057807301254
  WF centre and spread    2  (   0.000000000022239,  -0.000000000013626,   0.000000000065150 )   0.321655890287060
  WF centre and spread    3  (  -0.000000000015834,  -0.000000000012463,   0.000000000019800 )   0.321655890284788
  WF centre and spread    4  (  -0.000000000004435,  -0.000000000000140,   0.000000000005759 )   0.333057782053033
  WF centre and spread    5  (   0.000000000029714,  -0.000000000025483,   0.000000000016869 )   0.321655883042953
  WF centre and spread    6  (  -0.902511729181781,   0.902511729189348,   0.902511729353329 )   0.834471569592397
  WF centre and spread    7  (   0.902511729207765,  -0.902511729215690,  -0.902511729120940 )   0.834471569574163
  Sum of centres and spreads (   0.000000000060835,  -0.000000000081888,   0.000000000334750 )   3.300026392135649
 
     13    -0.178E-14     0.0000000939        3.3000263921       0.09  <-- CONV
        O_D=      0.0084766 O_OD=      0.1270570 O_TOT=      3.3000264 <-- SPRD
 Delta: O_D= -0.4403752E-11 O_OD=  0.4402312E-11 O_TOT= -0.1776357E-14 <-- DLTA
 ------------------------------------------------------------------------------
 Cycle:     14
  WF centre and spread    1  (   0.000000000003167,  -0.000000000003834,  -0.000000000005217 )   0.333057807221653
  WF centre and spread    2  (   0.000000000022239,  -0.000000000013626,   0.000000000065150 )   0.321655890304065
  WF centre and spread    3  (  -0.000000000015834,  -0.000000000012463,   0.000000000019800 )   0.321655890301791
  WF centre and spread    4  (  -0.000000000004435,  -0.000000000000140,   0.000000000005759 )   0.333057781964116
  WF centre and spread    5  (   0.000000000029714,  -0.000000000025483,   0.000000000016869 )   0.321655883037741
  WF centre and spread    6  (  -0.902511729181782,   0.902511729189348,   0.902511729353329 )   0.834471569662255
  WF centre and spread    7  (   0.902511729207765,  -0.902511729215689,  -0.902511729120940 )   0.834471569644019
  Sum of centres and spreads (   0.000000000060834,  -0.000000000081887,   0.000000000334748 )   3.300026392135642
 
     14    -0.266E-14     0.0000000879        3.3000263921       0.09  <-- CONV
        O_D=      0.0084766 O_OD=      0.1270570 O_TOT=      3.3000264 <-- SPRD
 Delta: O_D= -0.7950541E-11 O_OD=  0.7948198E-11 O_TOT= -0.2664535E-14 <-- DLTA
 ------------------------------------------------------------------------------
 Cycle:     15
  WF centre and spread    1  (   0.000000000003167,  -0.000000000003834,  -0.000000000005217 )   0.333057807079562
  WF centre and spread    2  (   0.000000000022239,  -0.000000000013626,   0.000000000065150 )   0.321655890335616
  WF centre and spread    3  (  -0.000000000015834,  -0.000000000012463,   0.000000000019800 )   0.321655890333342
  WF centre and spread    4  (  -0.000000000004435,  -0.000000000000140,   0.000000000005759 )   0.333057781805104
  WF centre and spread    5  (   0.000000000029714,  -0.000000000025483,   0.000000000016868 )   0.321655883027684
  WF centre and spread    6  (  -0.902511729181782,   0.902511729189349,   0.902511729353328 )   0.834471569786280
  WF centre and spread    7  (   0.902511729207765,  -0.902511729215689,  -0.902511729120941 )   0.834471569768046
  Sum of centres and spreads (   0.000000000060833,  -0.000000000081885,   0.000000000334746 )   3.300026392135634
 
     15    -0.311E-14     0.0000000772        3.3000263921       0.09  <-- CONV
        O_D=      0.0084766 O_OD=      0.1270570 O_TOT=      3.3000264 <-- SPRD
 Delta: O_D= -0.1408186E-10 O_OD=  0.1407854E-10 O_TOT= -0.3108624E-14 <-- DLTA
 ------------------------------------------------------------------------------
 Cycle:     16
  WF centre and spread    1  (   0.000000000003167,  -0.000000000003834,  -0.000000000005217 )   0.333057806996898
  WF centre and spread    2  (   0.000000000022239,  -0.000000000013625,   0.000000000065149 )   0.321655890355673
  WF centre and spread    3  (  -0.000000000015834,  -0.000000000012463,   0.000000000019800 )   0.321655890353399
  WF centre and spread    4  (  -0.000000000004435,  -0.000000000000140,   0.000000000005759 )   0.333057781712185
  WF centre and spread    5  (   0.000000000029714,  -0.000000000025483,   0.000000000016868 )   0.321655883020721
  WF centre and spread    6  (  -0.902511729181783,   0.902511729189349,   0.902511729353326 )   0.834471569857492
  WF centre and spread    7  (   0.902511729207764,  -0.902511729215688,  -0.902511729120942 )   0.834471569839257
  Sum of centres and spreads (   0.000000000060832,  -0.000000000081884,   0.000000000334743 )   3.300026392135624
 
     16    -0.133E-14     0.0000000583        3.3000263921       0.09  <-- CONV
        O_D=      0.0084766 O_OD=      0.1270570 O_TOT=      3.3000264 <-- SPRD
 Delta: O_D= -0.8043533E-11 O_OD=  0.8042039E-11 O_TOT= -0.1332268E-14 <-- DLTA
 ------------------------------------------------------------------------------
 Cycle:     17
  WF centre and spread    1  (   0.000000000003167,  -0.000000000003834,  -0.000000000005217 )   0.333057806919845
  WF centre and spread    2  (   0.000000000022239,  -0.000000000013625,   0.000000000065149 )   0.321655890376239
  WF centre and spread    3  (  -0.000000000015834,  -0.000000000012463,   0.000000000019799 )   0.321655890373965
  WF centre and spread    4  (  -0.000000000004435,  -0.000000000000140,   0.000000000005759 )   0.333057781625128
  WF centre and spread    5  (   0.000000000029713,  -0.000000000025483,   0.000000000016868 )   0.321655883012951
  WF centre and spread    6  (  -0.902511729181783,   0.902511729189349,   0.902511729353326 )   0.834471569922860
  WF centre and spread    7  (   0.902511729207764,  -0.902511729215688,  -0.902511729120943 )   0.834471569904625
  Sum of centres and spreads (   0.000000000060831,  -0.000000000081883,   0.000000000334742 )   3.300026392135613
 
     17    -0.133E-14     0.0000000477        3.3000263921       0.09  <-- CONV
        O_D=      0.0084766 O_OD=      0.1270570 O_TOT=      3.3000264 <-- SPRD
 Delta: O_D= -0.7344769E-11 O_OD=  0.7343653E-11 O_TOT= -0.1332268E-14 <-- DLTA
 ------------------------------------------------------------------------------

             <<<     Delta < 1.000E-12  over  5 iterations     >>>
             <<< Wannierisation convergence criteria satisfied >>>

 Final State
  WF centre and spread    1  (   0.000000000003167,  -0.000000000003834,  -0.000000000005217 )   0.333057806919845
  WF centre and spread    2  (   0.000000000022239,  -0.000000000013625,   0.000000000065149 )   0.321655890376239
  WF centre and spread    3  (  -0.000000000015834,  -0.000000000012463,   0.000000000019799 )   0.321655890373965
  WF centre and spread    4  (  -0.000000000004435,  -0.000000000000140,   0.000000000005759 )   0.333057781625128
  WF centre and spread    5  (   0.000000000029713,  -0.000000000025483,   0.000000000016868 )   0.321655883012951
  WF centre and spread    6  (  -0.902511729181783,   0.902511729189349,   0.902511729353326 )   0.834471569922860
  WF centre and spread    7  (   0.902511729207764,  -0.902511729215688,  -0.902511729120943 )   0.834471569904625
  Sum of centres and spreads (   0.000000000060831,  -0.000000000081883,   0.000000000334742 )   3.300026392135613
 
         Spreads (Ang^2)       Omega I      =     3.164492813
        ================       Omega D      =     0.008476559
                               Omega OD     =     0.127057020
    Final Spread (Ang^2)       Omega Total  =     3.300026392
 ------------------------------------------------------------------------------
 Time for wannierise            0.009 (sec)

 Writing checkpoint file Cu.chk... done

 *---------------------------------------------------------------------------*
 |                               PLOTTING                                    |
 *---------------------------------------------------------------------------*
 
 
 Calculating interpolated band-structure
 
 Time to calculate interpolated band structure       0.133 (sec)
 
 Time for plotting              0.143 (sec)
 Total Execution Time           0.259 (sec)

 *===========================================================================*
 |                             TIMING INFORMATION                            |
 *===========================================================================*
 |    Tag                                                Ncalls      Time (s)|
 |---------------------------------------------------------------------------|
 |kmesh: get                                        :         1         0.035|
 |overlap: allocate                                 :         1         0.000|
 |overlap: read                                     :         1         0.041|
 |dis: main                                         :         1         0.015|
 |wann: main                                        :         1         0.009|
 |plot: main                                        :         1         0.143|
 *---------------------------------------------------------------------------*
 
 All done: wannier90 exiting
