 
             +---------------------------------------------------+
             |                                                   |
             |                   WANNIER90                       |
             |                                                   |
             +---------------------------------------------------+
             |                                                   |
             |        Welcome to the Maximally-Localized         |
             |        Generalized Wannier Functions code         |
             |            http://www.wannier.org                 |
             |                                                   |
             |                                                   |
             |  Wannier90 Developer Group:                       |
             |    Giovanni Pizzi    (EPFL)                       |
             |    Valerio Vitale    (Cambridge)                  |
             |    David Vanderbilt  (Rutgers University)         |
             |    Nicola Marzari    (EPFL)                       |
             |    Ivo Souza         (Universidad del Pais Vasco) |
             |    Arash A. Mostofi  (Imperial College London)    |
             |    Jonathan R. Yates (University of Oxford)       |
             |                                                   |
             |  For the full list of Wannier90 3.x authors,      |
             |  please check the code documentation and the      |
             |  README on the GitHub page of the code            |
             |                                                   |
             |                                                   |
             |  Please cite                                      |
             |                                                   |
             |  [ref] "Wannier90 as a community code:            |
             |        new features and applications",            |
             |        G. Pizzi et al., J. Phys. Cond. Matt. 32,  |
             |        165902 (2020).                             |
             |        http://doi.org/10.1088/1361-648X/ab51ff    |
             |                                                   |
             |  in any publications arising from the use of      |
             |  this code. For the method please cite            |
             |                                                   |
             |  [ref] "Maximally Localized Generalised Wannier   |
             |         Functions for Composite Energy Bands"     |
             |         N. Marzari and D. Vanderbilt              |
             |         Phys. Rev. B 56 12847 (1997)              |
             |                                                   |
             |  [ref] "Maximally Localized Wannier Functions     |
             |         for Entangled Energy Bands"               |
             |         I. Souza, N. Marzari and D. Vanderbilt    |
             |         Phys. Rev. B 65 035109 (2001)             |
             |                                                   |
             |                                                   |
             | Copyright (c) 1996-2020                           |
             |        The Wannier90 Developer Group and          |
             |        individual contributors                    |
             |                                                   |
             |      Release: 3.1.0        5th March    2020      |
             |                                                   |
             | This program is free software; you can            |
             | redistribute it and/or modify it under the terms  |
             | of the GNU General Public License as published by |
             | the Free Software Foundation; either version 2 of |
             | the License, or (at your option) any later version|
             |                                                   |
             | This program is distributed in the hope that it   |
             | will be useful, but WITHOUT ANY WARRANTY; without |
             | even the implied warranty of MERCHANTABILITY or   |
             | FITNESS FOR A PARTICULAR PURPOSE. See the GNU     |
             | General Public License for more details.          |
             |                                                   |
             | You should have received a copy of the GNU General|
             | Public License along with this program; if not,   |
             | write to the Free Software Foundation, Inc.,      |
             | 675 Mass Ave, Cambridge, MA 02139, USA.           |
             |                                                   |
             +---------------------------------------------------+
             |    Execution started on 30Jul2022 at 02:33:50     |
             +---------------------------------------------------+
 
 ******************************************************************************
 * -> Using CODATA 2010 constant values                                       *
 *    (http://physics.nist.gov/cuu/Constants/index.html)                      *
 * -> Using Bohr value from CODATA                                            *
 ******************************************************************************
 

 Running in serial (with parallel executable)
 
                                    ------
                                    SYSTEM
                                    ------
 
                              Lattice Vectors (Ang)
                    a_1    -1.805023   0.000000   1.805023
                    a_2     0.000000   1.805023   1.805023
                    a_3    -1.805023   1.805023   0.000000
 
                   Unit Cell Volume:      11.76193  (Ang^3)
 
                        Reciprocal-Space Vectors (Ang^-1)
                    b_1    -1.740472  -1.740472   1.740472
                    b_2     1.740472   1.740472   1.740472
                    b_3    -1.740472   1.740472  -1.740472
  
 *----------------------------------------------------------------------------*
 |   Site       Fractional Coordinate          Cartesian Coordinate (Ang)     |
 +----------------------------------------------------------------------------+
 | Cu   1   0.00000   0.00000   0.00000   |    0.00000   0.00000   0.00000    |
 *----------------------------------------------------------------------------*
                                ------------
                                K-POINT GRID
                                ------------
  
             Grid size =  3 x  3 x  3      Total points =   27
  
  
 *---------------------------------- MAIN ------------------------------------*
 |  Number of Wannier Functions               :                 7             |
 |  Number of Objective Wannier Functions     :                 7             |
 |  Number of input Bloch states              :                10             |
 |  Output verbosity (1=low, 5=high)          :                 1             |
 |  Timing Level (1=low, 5=high)              :                 1             |
 |  Optimisation (0=memory, 3=speed)          :                 3             |
 |  Length Unit                               :               Ang             |
 |  Post-processing setup (write *.nnkp)      :                 F             |
 |  Using Gamma-only branch of algorithms     :                 F             |
 *----------------------------------------------------------------------------*
 *------------------------------- WANNIERISE ---------------------------------*
 |  Total number of iterations                :               100             |
 |  Number of CG steps before reset           :                 5             |
 |  Trial step length for line search         :             2.000             |
 |  Convergence tolerence                     :         0.100E-11             |
 |  Convergence window                        :                 5             |
 |  Iterations between writing output         :                 1             |
 |  Iterations between backing up to disk     :               100             |
 |  Write r^2_nm to file                      :                 F             |
 |  Write xyz WF centres to file              :                 F             |
 |  Write on-site energies <0n|H|0n> to file  :                 F             |
 |  Use guiding centre to control phases      :                 F             |
 |  Use phases for initial projections        :                 F             |
 *----------------------------------------------------------------------------*
 *------------------------------- DISENTANGLE --------------------------------*
 |  Using band disentanglement                :                 T             |
 |  Total number of iterations                :               100             |
 |  Mixing ratio                              :             1.000             |
 |  Convergence tolerence                     :         1.000E-10             |
 |  Convergence window                        :                 3             |
 *----------------------------------------------------------------------------*
 *-------------------------------- PLOTTING ----------------------------------*
 |  Plotting interpolated bandstructure       :                 T             |
 |   Number of K-path sections                :                 5             |
 |   Divisions along first K-path section     :               100             |
 |   Output format                            :           gnuplot             |
 |   Output mode                              :               s-k             |
 *----------------------------------------------------------------------------*
 |   K-space path sections:                                                   |
 |    From: G       0.000  0.000  0.000     To: X       0.500  0.500  0.000   |
 |    From: X       0.500  0.500  0.000     To: W       0.500  0.750  0.250   |
 |    From: W       0.500  0.750  0.250     To: L       0.000  0.500  0.000   |
 |    From: L       0.000  0.500  0.000     To: G       0.000  0.000  0.000   |
 |    From: G       0.000  0.000  0.000     To: K       0.000  0.500 -0.500   |
 *----------------------------------------------------------------------------*
 Time to read parameters        0.013 (sec)

 *---------------------------------- K-MESH ----------------------------------*
 +----------------------------------------------------------------------------+
 |                    Distance to Nearest-Neighbour Shells                    |
 |                    ------------------------------------                    |
 |          Shell             Distance (Ang^-1)          Multiplicity         |
 |          -----             -----------------          ------------         |
 |             1                   1.004862                      8            |
 |             2                   1.160315                      6            |
 |             3                   1.640933                     12            |
 |             4                   1.924164                     24            |
 |             5                   2.009724                      8            |
 |             6                   2.320629                      6            |
 |             7                   2.528847                     24            |
 |             8                   2.594542                     24            |
 |             9                   2.842179                     24            |
 |            10                   3.014586                     32            |
 |            11                   3.281865                     12            |
 |            12                   3.432257                     48            |
 |            13                   3.480944                     30            |
 |            14                   3.669237                     24            |
 |            15                   3.804346                     24            |
 |            16                   3.848328                     24            |
 |            17                   4.019448                      8            |
 |            18                   4.143152                     48            |
 |            19                   4.183574                     24            |
 |            20                   4.341500                     48            |
 |            21                   4.456273                     72            |
 |            22                   4.641258                      6            |
 |            23                   4.748792                     24            |
 |            24                   4.784100                     48            |
 |            25                   4.922798                     36            |
 |            26                   5.024310                     56            |
 |            27                   5.057694                     24            |
 |            28                   5.189085                     24            |
 |            29                   5.285485                     72            |
 |            30                   5.317230                     48            |
 |            31                   5.442358                     24            |
 |            32                   5.534348                     48            |
 |            33                   5.684357                     24            |
 |            34                   5.772492                     72            |
 |            35                   5.801573                     30            |
 |            36                   5.916467                     72            |
 +----------------------------------------------------------------------------+
 | The b-vectors are chosen automatically                                     |
 | The following shells are used:   1                                         |
 +----------------------------------------------------------------------------+
 |                        Shell   # Nearest-Neighbours                        |
 |                        -----   --------------------                        |
 |                          1               8                                 |
 +----------------------------------------------------------------------------+
 | Completeness relation is fully satisfied [Eq. (B1), PRB 56, 12847 (1997)]  |
 | Completeness relations for higher-order are fully satisfied                |
 +----------------------------------------------------------------------------+
 |                  b_k Vectors (Ang^-1) and Weights (Ang^2)                  |
 |                  ----------------------------------------                  |
 |            No.         b_k(x)      b_k(y)      b_k(z)        w_b           |
 |            ---        --------------------------------     --------        |
 |             1        -0.580157    0.580157   -0.580157     0.371380        |
 |             2         0.580157    0.580157    0.580157     0.371380        |
 |             3        -0.580157   -0.580157    0.580157     0.371380        |
 |             4        -0.580157    0.580157    0.580157     0.371380        |
 |             5         0.580157   -0.580157    0.580157     0.371380        |
 |             6        -0.580157   -0.580157   -0.580157     0.371380        |
 |             7         0.580157    0.580157   -0.580157     0.371380        |
 |             8         0.580157   -0.580157   -0.580157     0.371380        |
 +----------------------------------------------------------------------------+
 |                           b_k Directions (Ang^-1)                          |
 |                           -----------------------                          |
 |            No.           x           y           z                         |
 |            ---        --------------------------------                     |
 |             1        -0.580157    0.580157   -0.580157                     |
 |             2         0.580157    0.580157    0.580157                     |
 |             3        -0.580157   -0.580157    0.580157                     |
 |             4        -0.580157    0.580157    0.580157                     |
 +----------------------------------------------------------------------------+
  
 Time to get kmesh              0.038 (sec)
 *============================================================================*
 |                              MEMORY ESTIMATE                               |
 |         Maximum RAM allocated during each phase of the calculation         |
 *============================================================================*
 |                        Disentanglement            0.59 Mb                  |
 |                            Wannierise:            0.51 Mb                  |
 |                          plot_wannier:            0.51 Mb                  |
 *----------------------------------------------------------------------------*
  
 Starting a new Wannier90 calculation ...


 Reading overlaps from Cu.mmn    :  Created on  4Jul2022 at 21:53: 6

 Reading projections from Cu.amn :  Created on  4Jul2022 at 21:53: 5

 Time to read overlaps          0.033 (sec)

 *------------------------------- DISENTANGLE --------------------------------*
 +----------------------------------------------------------------------------+
 |                              Energy  Windows                               |
 |                              ---------------                               |
 |                   Outer:    8.00509  to   42.76033  (eV)                   |
 |                   No frozen states were specified                          |
 +----------------------------------------------------------------------------+
   Number of target bands to extract:    7

                   Unitarised projection of Wannier functions                  
                   ------------------------------------------                  
   A_mn = <psi_m|g_n> --> S = A.A^+ --> U = S^-1/2.A
   In dis_project... done
   No inner window (linner = F)

                   Extraction of optimally-connected subspace                  
                   ------------------------------------------                  
 +---------------------------------------------------------------------+<-- DIS
 |  Iter     Omega_I(i-1)      Omega_I(i)      Delta (frac.)    Time   |<-- DIS
 +---------------------------------------------------------------------+<-- DIS
       1       3.63228635       3.33831245       8.806E-02      0.00    <-- DIS
       2       3.29828357       3.22153500       2.382E-02      0.00    <-- DIS
       3       3.20882231       3.18386750       7.838E-03      0.00    <-- DIS
       4       3.17954525       3.17107991       2.670E-03      0.00    <-- DIS
       5       3.16958787       3.16671528       9.071E-04      0.01    <-- DIS
       6       3.16620563       3.16524074       3.048E-04      0.01    <-- DIS
       7       3.16506643       3.16474374       1.020E-04      0.01    <-- DIS
       8       3.16468436       3.16457700       3.393E-05      0.01    <-- DIS
       9       3.16455671       3.16452106       1.127E-05      0.01    <-- DIS
      10       3.16451413       3.16450231       3.733E-06      0.01    <-- DIS
      11       3.16449993       3.16449602       1.236E-06      0.01    <-- DIS
      12       3.16449520       3.16449391       4.084E-07      0.02    <-- DIS
      13       3.16449363       3.16449320       1.348E-07      0.02    <-- DIS
      14       3.16449310       3.16449296       4.446E-08      0.02    <-- DIS
      15       3.16449293       3.16449288       1.464E-08      0.02    <-- DIS
      16       3.16449287       3.16449285       4.812E-09      0.02    <-- DIS
      17       3.16449285       3.16449285       1.579E-09      0.02    <-- DIS
      18       3.16449284       3.16449284       5.168E-10      0.02    <-- DIS
      19       3.16449284       3.16449284       1.687E-10      0.02    <-- DIS
      20       3.16449284       3.16449284       5.489E-11      0.03    <-- DIS
      21       3.16449284       3.16449284       1.779E-11      0.03    <-- DIS
      22       3.16449284       3.16449284       5.734E-12      0.03    <-- DIS

             <<<      Delta < 1.000E-10  over  3 iterations     >>>
             <<< Disentanglement convergence criteria satisfied >>>

        Final Omega_I     3.16449284 (Ang^2)

 +----------------------------------------------------------------------------+

 Time to disentangle bands      0.033 (sec)

 Writing checkpoint file Cu.chk... done

 
 *------------------------------- WANNIERISE ---------------------------------*
 +--------------------------------------------------------------------+<-- CONV
 | Iter  Delta Spread     RMS Gradient      Spread (Ang^2)      Time  |<-- CONV
 +--------------------------------------------------------------------+<-- CONV
 
 ------------------------------------------------------------------------------
 Initial State
  WF centre and spread    1  (   0.000000000002652,  -0.000000000002998,   0.000000000001349 )   0.339561855238487
  WF centre and spread    2  (   0.000000000019681,  -0.000000000012192,   0.000000000061457 )   0.381472617230590
  WF centre and spread    3  (  -0.000000000011515,  -0.000000000004868,   0.000000000013726 )   0.381472617218493
  WF centre and spread    4  (  -0.000000000002423,   0.000000000001065,   0.000000000005847 )   0.339440777567473
  WF centre and spread    5  (   0.000000000020852,  -0.000000000014854,   0.000000000011900 )   0.381472375518535
  WF centre and spread    6  (  -0.902511733156967,   0.902511733154648,   0.902511733325431 )   0.985518665039791
  WF centre and spread    7  (   0.902511733183357,  -0.902511733197448,  -0.902511733101856 )   0.985518665020038
  Sum of centres and spreads (   0.000000000055636,  -0.000000000076648,   0.000000000317854 )   3.794457572833407
 
      0     0.379E+01     0.0000000000        3.7944575728       0.03  <-- CONV
        O_D=      0.0070256 O_OD=      0.6229391 O_TOT=      3.7944576 <-- SPRD
 ------------------------------------------------------------------------------
 Cycle:      1
  WF centre and spread    1  (   0.000000000003130,  -0.000000000004392,  -0.000000000003500 )   0.338458966228324
  WF centre and spread    2  (   0.000000000022712,  -0.000000000014259,   0.000000000063407 )   0.321711680484725
  WF centre and spread    3  (  -0.000000000015049,  -0.000000000011628,   0.000000000016898 )   0.321711680468334
  WF centre and spread    4  (  -0.000000000004632,  -0.000000000000324,   0.000000000005789 )   0.338236237263427
  WF centre and spread    5  (   0.000000000028402,  -0.000000000023130,   0.000000000017704 )   0.321716170746972
  WF centre and spread    6  (  -0.902511733155108,   0.902511733160923,   0.902511733327021 )   0.873118473683904
  WF centre and spread    7  (   0.902511733179605,  -0.902511733190918,  -0.902511733095038 )   0.873118473671292
  Sum of centres and spreads (   0.000000000059060,  -0.000000000083728,   0.000000000332281 )   3.388071682546977
 
      1    -0.406E+00     0.3641833054        3.3880716826       0.05  <-- CONV
        O_D=      0.0089646 O_OD=      0.2146142 O_TOT=      3.3880717 <-- SPRD
 Delta: O_D=  0.1939006E-02 O_OD= -0.4083249E+00 O_TOT= -0.4063859E+00 <-- DLTA
 ------------------------------------------------------------------------------
 Cycle:      2
  WF centre and spread    1  (   0.000000000003133,  -0.000000000003980,  -0.000000000005435 )   0.332986759749532
  WF centre and spread    2  (   0.000000000022896,  -0.000000000013546,   0.000000000065080 )   0.323928176226120
  WF centre and spread    3  (  -0.000000000015832,  -0.000000000012594,   0.000000000019406 )   0.323928176220845
  WF centre and spread    4  (  -0.000000000004688,  -0.000000000000166,   0.000000000005756 )   0.332956855872448
  WF centre and spread    5  (   0.000000000029521,  -0.000000000025106,   0.000000000017173 )   0.323928830459299
  WF centre and spread    6  (  -0.902511733155814,   0.902511733163419,   0.902511733327451 )   0.835062028083465
  WF centre and spread    7  (   0.902511733181494,  -0.902511733190109,  -0.902511733094586 )   0.835062028068091
  Sum of centres and spreads (   0.000000000060712,  -0.000000000082083,   0.000000000334844 )   3.307852854679799
 
      2    -0.802E-01     0.2364641972        3.3078528547       0.05  <-- CONV
        O_D=      0.0085152 O_OD=      0.1348448 O_TOT=      3.3078529 <-- SPRD
 Delta: O_D= -0.4494513E-03 O_OD= -0.7976938E-01 O_TOT= -0.8021883E-01 <-- DLTA
 ------------------------------------------------------------------------------
 Cycle:      3
  WF centre and spread    1  (   0.000000000003125,  -0.000000000003798,  -0.000000000005460 )   0.333087197556715
  WF centre and spread    2  (   0.000000000022348,  -0.000000000013606,   0.000000000065039 )   0.323516406535334
  WF centre and spread    3  (  -0.000000000015872,  -0.000000000012580,   0.000000000019523 )   0.323516406533284
  WF centre and spread    4  (  -0.000000000004542,  -0.000000000000149,   0.000000000005759 )   0.333084113180519
  WF centre and spread    5  (   0.000000000029869,  -0.000000000025773,   0.000000000016854 )   0.323516331977156
  WF centre and spread    6  (  -0.902511733155819,   0.902511733163243,   0.902511733326973 )   0.831903997425285
  WF centre and spread    7  (   0.902511733181503,  -0.902511733189499,  -0.902511733094738 )   0.831903997408478
  Sum of centres and spreads (   0.000000000060612,  -0.000000000082162,   0.000000000333952 )   3.300528450616770
 
      3    -0.732E-02     0.0833915101        3.3005284506       0.05  <-- CONV
        O_D=      0.0084563 O_OD=      0.1275793 O_TOT=      3.3005285 <-- SPRD
 Delta: O_D= -0.5885715E-04 O_OD= -0.7265547E-02 O_TOT= -0.7324404E-02 <-- DLTA
 ------------------------------------------------------------------------------
 Cycle:      4
  WF centre and spread    1  (   0.000000000003154,  -0.000000000003824,  -0.000000000005289 )   0.333063599831870
  WF centre and spread    2  (   0.000000000022223,  -0.000000000013729,   0.000000000065121 )   0.322391620701240
  WF centre and spread    3  (  -0.000000000015858,  -0.000000000012500,   0.000000000019699 )   0.322391620699168
  WF centre and spread    4  (  -0.000000000004481,  -0.000000000000127,   0.000000000005754 )   0.333065220533915
  WF centre and spread    5  (   0.000000000029833,  -0.000000000025690,   0.000000000016935 )   0.322392599347632
  WF centre and spread    6  (  -0.902511733155644,   0.902511733163114,   0.902511733327201 )   0.833431567119120
  WF centre and spread    7  (   0.902511733181613,  -0.902511733189553,  -0.902511733094740 )   0.833431567101349
  Sum of centres and spreads (   0.000000000060839,  -0.000000000082310,   0.000000000334680 )   3.300167795334293
 
      4    -0.361E-03     0.0122116408        3.3001677953       0.05  <-- CONV
        O_D=      0.0084678 O_OD=      0.1272072 O_TOT=      3.3001678 <-- SPRD
 Delta: O_D=  0.1148907E-04 O_OD= -0.3721444E-03 O_TOT= -0.3606553E-03 <-- DLTA
 ------------------------------------------------------------------------------
 Cycle:      5
  WF centre and spread    1  (   0.000000000003174,  -0.000000000003838,  -0.000000000005211 )   0.333052189296149
  WF centre and spread    2  (   0.000000000022218,  -0.000000000013618,   0.000000000065137 )   0.321724177535567
  WF centre and spread    3  (  -0.000000000015854,  -0.000000000012447,   0.000000000019813 )   0.321724177533322
  WF centre and spread    4  (  -0.000000000004434,  -0.000000000000137,   0.000000000005758 )   0.333053522060455
  WF centre and spread    5  (   0.000000000029708,  -0.000000000025487,   0.000000000016846 )   0.321724288068737
  WF centre and spread    6  (  -0.902511733155669,   0.902511733163262,   0.902511733326955 )   0.834383366983930
  WF centre and spread    7  (   0.902511733181511,  -0.902511733189380,  -0.902511733094920 )   0.834383366965465
  Sum of centres and spreads (   0.000000000060655,  -0.000000000081644,   0.000000000334378 )   3.300045088443627
 
      5    -0.123E-03     0.0082726024        3.3000450885       0.06  <-- CONV
        O_D=      0.0084758 O_OD=      0.1270765 O_TOT=      3.3000451 <-- SPRD
 Delta: O_D=  0.7998821E-05 O_OD= -0.1307057E-03 O_TOT= -0.1227069E-03 <-- DLTA
 ------------------------------------------------------------------------------
 Cycle:      6
  WF centre and spread    1  (   0.000000000003171,  -0.000000000003835,  -0.000000000005221 )   0.333055984379617
  WF centre and spread    2  (   0.000000000022240,  -0.000000000013630,   0.000000000065178 )   0.321609959007043
  WF centre and spread    3  (  -0.000000000015829,  -0.000000000012465,   0.000000000019850 )   0.321609959004748
  WF centre and spread    4  (  -0.000000000004430,  -0.000000000000134,   0.000000000005759 )   0.333056300820604
  WF centre and spread    5  (   0.000000000029714,  -0.000000000025482,   0.000000000016880 )   0.321609909224768
  WF centre and spread    6  (  -0.902511733155559,   0.902511733163162,   0.902511733327124 )   0.834542459383190
  WF centre and spread    7  (   0.902511733181593,  -0.902511733189481,  -0.902511733094783 )   0.834542459364743
  Sum of centres and spreads (   0.000000000060900,  -0.000000000081865,   0.000000000334787 )   3.300027031184712
 
      6    -0.181E-04     0.0039293286        3.3000270312       0.06  <-- CONV
        O_D=      0.0084772 O_OD=      0.1270570 O_TOT=      3.3000270 <-- SPRD
 Delta: O_D=  0.1374203E-05 O_OD= -0.1943146E-04 O_TOT= -0.1805726E-04 <-- DLTA
 ------------------------------------------------------------------------------
 Cycle:      7
  WF centre and spread    1  (   0.000000000003170,  -0.000000000003835,  -0.000000000005213 )   0.333058093607916
  WF centre and spread    2  (   0.000000000022230,  -0.000000000013623,   0.000000000065156 )   0.321627812883981
  WF centre and spread    3  (  -0.000000000015838,  -0.000000000012458,   0.000000000019820 )   0.321627812881698
  WF centre and spread    4  (  -0.000000000004429,  -0.000000000000140,   0.000000000005759 )   0.333058090635959
  WF centre and spread    5  (   0.000000000029707,  -0.000000000025471,   0.000000000016862 )   0.321627797660953
  WF centre and spread    6  (  -0.902511733155592,   0.902511733163181,   0.902511733327095 )   0.834513478783765
  WF centre and spread    7  (   0.902511733181562,  -0.902511733189466,  -0.902511733094797 )   0.834513478765417
  Sum of centres and spreads (   0.000000000060810,  -0.000000000081811,   0.000000000334682 )   3.300026565219688
 
      7    -0.466E-06     0.0005469374        3.3000265652       0.06  <-- CONV
        O_D=      0.0084769 O_OD=      0.1270568 O_TOT=      3.3000266 <-- SPRD
 Delta: O_D= -0.2594087E-06 O_OD= -0.2065563E-06 O_TOT= -0.4659650E-06 <-- DLTA
 ------------------------------------------------------------------------------
 Cycle:      8
  WF centre and spread    1  (   0.000000000003167,  -0.000000000003833,  -0.000000000005220 )   0.333058272549997
  WF centre and spread    2  (   0.000000000022244,  -0.000000000013628,   0.000000000065162 )   0.321647436055571
  WF centre and spread    3  (  -0.000000000015827,  -0.000000000012468,   0.000000000019812 )   0.321647436053301
  WF centre and spread    4  (  -0.000000000004435,  -0.000000000000138,   0.000000000005759 )   0.333058158926704
  WF centre and spread    5  (   0.000000000029717,  -0.000000000025486,   0.000000000016876 )   0.321647388496633
  WF centre and spread    6  (  -0.902511733155567,   0.902511733163141,   0.902511733327188 )   0.834483877887545
  WF centre and spread    7  (   0.902511733181608,  -0.902511733189525,  -0.902511733094721 )   0.834483877869281
  Sum of centres and spreads (   0.000000000060906,  -0.000000000081937,   0.000000000334856 )   3.300026447839032
 
      8    -0.117E-06     0.0002330019        3.3000264478       0.06  <-- CONV
        O_D=      0.0084767 O_OD=      0.1270570 O_TOT=      3.3000264 <-- SPRD
 Delta: O_D= -0.2600775E-06 O_OD=  0.1426969E-06 O_TOT= -0.1173807E-06 <-- DLTA
 ------------------------------------------------------------------------------
 Cycle:      9
  WF centre and spread    1  (   0.000000000003168,  -0.000000000003835,  -0.000000000005211 )   0.333057618555865
  WF centre and spread    2  (   0.000000000022232,  -0.000000000013619,   0.000000000065139 )   0.321655568496926
  WF centre and spread    3  (  -0.000000000015841,  -0.000000000012456,   0.000000000019792 )   0.321655568494661
  WF centre and spread    4  (  -0.000000000004433,  -0.000000000000143,   0.000000000005759 )   0.333057579714877
  WF centre and spread    5  (   0.000000000029707,  -0.000000000025475,   0.000000000016855 )   0.321655549856716
  WF centre and spread    6  (  -0.902511733155620,   0.902511733163187,   0.902511733327101 )   0.834472268455874
  WF centre and spread    7  (   0.902511733181551,  -0.902511733189477,  -0.902511733094787 )   0.834472268437644
  Sum of centres and spreads (   0.000000000060764,  -0.000000000081818,   0.000000000334647 )   3.300026422012563
 
      9    -0.258E-07     0.0001188860        3.3000264220       0.06  <-- CONV
        O_D=      0.0084766 O_OD=      0.1270570 O_TOT=      3.3000264 <-- SPRD
 Delta: O_D= -0.8299441E-07 O_OD=  0.5716795E-07 O_TOT= -0.2582646E-07 <-- DLTA
 ------------------------------------------------------------------------------
 Cycle:     10
  WF centre and spread    1  (   0.000000000003166,  -0.000000000003833,  -0.000000000005220 )   0.333057771257167
  WF centre and spread    2  (   0.000000000022244,  -0.000000000013630,   0.000000000065157 )   0.321655883195697
  WF centre and spread    3  (  -0.000000000015830,  -0.000000000012467,   0.000000000019805 )   0.321655883193430
  WF centre and spread    4  (  -0.000000000004437,  -0.000000000000138,   0.000000000005759 )   0.333057743624808
  WF centre and spread    5  (   0.000000000029718,  -0.000000000025488,   0.000000000016877 )   0.321655876321492
  WF centre and spread    6  (  -0.902511733155582,   0.902511733163146,   0.902511733327178 )   0.834471631826609
  WF centre and spread    7  (   0.902511733181599,  -0.902511733189524,  -0.902511733094729 )   0.834471631808386
  Sum of centres and spreads (   0.000000000060879,  -0.000000000081934,   0.000000000334826 )   3.300026421227587
 
     10    -0.785E-09     0.0000242795        3.3000264212       0.07  <-- CONV
        O_D=      0.0084766 O_OD=      0.1270570 O_TOT=      3.3000264 <-- SPRD
 Delta: O_D= -0.7957577E-08 O_OD=  0.7172608E-08 O_TOT= -0.7849694E-09 <-- DLTA
 ------------------------------------------------------------------------------
 Cycle:     11
  WF centre and spread    1  (   0.000000000003167,  -0.000000000003834,  -0.000000000005215 )   0.333057806139164
  WF centre and spread    2  (   0.000000000022237,  -0.000000000013624,   0.000000000065147 )   0.321655894102168
  WF centre and spread    3  (  -0.000000000015836,  -0.000000000012461,   0.000000000019798 )   0.321655894099900
  WF centre and spread    4  (  -0.000000000004435,  -0.000000000000140,   0.000000000005759 )   0.333057781058431
  WF centre and spread    5  (   0.000000000029712,  -0.000000000025481,   0.000000000016865 )   0.321655887353634
  WF centre and spread    6  (  -0.902511733155603,   0.902511733163170,   0.902511733327132 )   0.834471579231075
  WF centre and spread    7  (   0.902511733181572,  -0.902511733189497,  -0.902511733094765 )   0.834471579212847
  Sum of centres and spreads (   0.000000000060815,  -0.000000000081867,   0.000000000334720 )   3.300026421197220
 
     11    -0.304E-10     0.0000053771        3.3000264212       0.07  <-- CONV
        O_D=      0.0084766 O_OD=      0.1270570 O_TOT=      3.3000264 <-- SPRD
 Delta: O_D= -0.2382858E-09 O_OD=  0.2079198E-09 O_TOT= -0.3036593E-10 <-- DLTA
 ------------------------------------------------------------------------------
 Cycle:     12
  WF centre and spread    1  (   0.000000000003167,  -0.000000000003834,  -0.000000000005217 )   0.333057810396013
  WF centre and spread    2  (   0.000000000022239,  -0.000000000013626,   0.000000000065150 )   0.321655893160374
  WF centre and spread    3  (  -0.000000000015834,  -0.000000000012463,   0.000000000019800 )   0.321655893158106
  WF centre and spread    4  (  -0.000000000004435,  -0.000000000000140,   0.000000000005759 )   0.333057785149525
  WF centre and spread    5  (   0.000000000029714,  -0.000000000025484,   0.000000000016869 )   0.321655885916702
  WF centre and spread    6  (  -0.902511733155596,   0.902511733163162,   0.902511733327145 )   0.834471576716812
  WF centre and spread    7  (   0.902511733181581,  -0.902511733189505,  -0.902511733094754 )   0.834471576698585
  Sum of centres and spreads (   0.000000000060836,  -0.000000000081888,   0.000000000334752 )   3.300026421196117
 
     12    -0.110E-11     0.0000009954        3.3000264212       0.07  <-- CONV
        O_D=      0.0084766 O_OD=      0.1270570 O_TOT=      3.3000264 <-- SPRD
 Delta: O_D= -0.5113564E-09 O_OD=  0.5102584E-09 O_TOT= -0.1098233E-11 <-- DLTA
 ------------------------------------------------------------------------------
 Cycle:     13
  WF centre and spread    1  (   0.000000000003167,  -0.000000000003834,  -0.000000000005217 )   0.333057810344590
  WF centre and spread    2  (   0.000000000022239,  -0.000000000013626,   0.000000000065150 )   0.321655893170974
  WF centre and spread    3  (  -0.000000000015834,  -0.000000000012463,   0.000000000019800 )   0.321655893168706
  WF centre and spread    4  (  -0.000000000004435,  -0.000000000000140,   0.000000000005759 )   0.333057785093352
  WF centre and spread    5  (   0.000000000029714,  -0.000000000025484,   0.000000000016869 )   0.321655885915967
  WF centre and spread    6  (  -0.902511733155596,   0.902511733163163,   0.902511733327145 )   0.834471576760377
  WF centre and spread    7  (   0.902511733181581,  -0.902511733189505,  -0.902511733094755 )   0.834471576742148
  Sum of centres and spreads (   0.000000000060836,  -0.000000000081888,   0.000000000334751 )   3.300026421196113
 
     13    -0.222E-14     0.0000000960        3.3000264212       0.07  <-- CONV
        O_D=      0.0084766 O_OD=      0.1270570 O_TOT=      3.3000264 <-- SPRD
 Delta: O_D= -0.3506067E-11 O_OD=  0.3503864E-11 O_TOT= -0.2220446E-14 <-- DLTA
 ------------------------------------------------------------------------------
 Cycle:     14
  WF centre and spread    1  (   0.000000000003167,  -0.000000000003834,  -0.000000000005217 )   0.333057810249558
  WF centre and spread    2  (   0.000000000022239,  -0.000000000013626,   0.000000000065150 )   0.321655893190816
  WF centre and spread    3  (  -0.000000000015834,  -0.000000000012463,   0.000000000019800 )   0.321655893188548
  WF centre and spread    4  (  -0.000000000004435,  -0.000000000000140,   0.000000000005759 )   0.333057784989439
  WF centre and spread    5  (   0.000000000029714,  -0.000000000025483,   0.000000000016869 )   0.321655885914267
  WF centre and spread    6  (  -0.902511733155597,   0.902511733163163,   0.902511733327144 )   0.834471576840853
  WF centre and spread    7  (   0.902511733181581,  -0.902511733189505,  -0.902511733094755 )   0.834471576822626
  Sum of centres and spreads (   0.000000000060835,  -0.000000000081887,   0.000000000334749 )   3.300026421196108
 
     14    -0.178E-14     0.0000000895        3.3000264212       0.07  <-- CONV
        O_D=      0.0084766 O_OD=      0.1270570 O_TOT=      3.3000264 <-- SPRD
 Delta: O_D= -0.6452514E-11 O_OD=  0.6450174E-11 O_TOT= -0.1776357E-14 <-- DLTA
 ------------------------------------------------------------------------------
 Cycle:     15
  WF centre and spread    1  (   0.000000000003167,  -0.000000000003834,  -0.000000000005217 )   0.333057810137525
  WF centre and spread    2  (   0.000000000022239,  -0.000000000013626,   0.000000000065150 )   0.321655893214785
  WF centre and spread    3  (  -0.000000000015834,  -0.000000000012463,   0.000000000019800 )   0.321655893212517
  WF centre and spread    4  (  -0.000000000004435,  -0.000000000000140,   0.000000000005759 )   0.333057784866699
  WF centre and spread    5  (   0.000000000029714,  -0.000000000025483,   0.000000000016868 )   0.321655885911466
  WF centre and spread    6  (  -0.902511733155597,   0.902511733163163,   0.902511733327144 )   0.834471576935672
  WF centre and spread    7  (   0.902511733181580,  -0.902511733189504,  -0.902511733094756 )   0.834471576917443
  Sum of centres and spreads (   0.000000000060833,  -0.000000000081886,   0.000000000334747 )   3.300026421196109
 
     15    -0.266E-14     0.0000000777        3.3000264212       0.08  <-- CONV
        O_D=      0.0084766 O_OD=      0.1270570 O_TOT=      3.3000264 <-- SPRD
 Delta: O_D= -0.7546732E-11 O_OD=  0.7544326E-11 O_TOT= -0.2664535E-14 <-- DLTA
 ------------------------------------------------------------------------------
 Cycle:     16
  WF centre and spread    1  (   0.000000000003167,  -0.000000000003834,  -0.000000000005217 )   0.333057810026427
  WF centre and spread    2  (   0.000000000022239,  -0.000000000013626,   0.000000000065149 )   0.321655893239467
  WF centre and spread    3  (  -0.000000000015834,  -0.000000000012463,   0.000000000019800 )   0.321655893237196
  WF centre and spread    4  (  -0.000000000004435,  -0.000000000000140,   0.000000000005759 )   0.333057784744616
  WF centre and spread    5  (   0.000000000029714,  -0.000000000025483,   0.000000000016868 )   0.321655885907396
  WF centre and spread    6  (  -0.902511733155597,   0.902511733163164,   0.902511733327142 )   0.834471577029613
  WF centre and spread    7  (   0.902511733181580,  -0.902511733189503,  -0.902511733094757 )   0.834471577011386
  Sum of centres and spreads (   0.000000000060832,  -0.000000000081884,   0.000000000334745 )   3.300026421196101
 
     16    -0.178E-14     0.0000000640        3.3000264212       0.08  <-- CONV
        O_D=      0.0084766 O_OD=      0.1270570 O_TOT=      3.3000264 <-- SPRD
 Delta: O_D= -0.7392519E-11 O_OD=  0.7391199E-11 O_TOT= -0.1776357E-14 <-- DLTA
 ------------------------------------------------------------------------------
 Cycle:     17
  WF centre and spread    1  (   0.000000000003167,  -0.000000000003834,  -0.000000000005217 )   0.333057809928235
  WF centre and spread    2  (   0.000000000022239,  -0.000000000013625,   0.000000000065149 )   0.321655893262472
  WF centre and spread    3  (  -0.000000000015834,  -0.000000000012463,   0.000000000019800 )   0.321655893260201
  WF centre and spread    4  (  -0.000000000004435,  -0.000000000000140,   0.000000000005759 )   0.333057784636236
  WF centre and spread    5  (   0.000000000029714,  -0.000000000025483,   0.000000000016868 )   0.321655885902058
  WF centre and spread    6  (  -0.902511733155598,   0.902511733163164,   0.902511733327142 )   0.834471577112564
  WF centre and spread    7  (   0.902511733181579,  -0.902511733189503,  -0.902511733094757 )   0.834471577094338
  Sum of centres and spreads (   0.000000000060832,  -0.000000000081883,   0.000000000334743 )   3.300026421196105
 
     17    -0.133E-14     0.0000000509        3.3000264212       0.08  <-- CONV
        O_D=      0.0084766 O_OD=      0.1270570 O_TOT=      3.3000264 <-- SPRD
 Delta: O_D= -0.6421296E-11 O_OD=  0.6419559E-11 O_TOT= -0.1332268E-14 <-- DLTA
 ------------------------------------------------------------------------------

             <<<     Delta < 1.000E-12  over  5 iterations     >>>
             <<< Wannierisation convergence criteria satisfied >>>

 Final State
  WF centre and spread    1  (   0.000000000003167,  -0.000000000003834,  -0.000000000005217 )   0.333057809928235
  WF centre and spread    2  (   0.000000000022239,  -0.000000000013625,   0.000000000065149 )   0.321655893262472
  WF centre and spread    3  (  -0.000000000015834,  -0.000000000012463,   0.000000000019800 )   0.321655893260201
  WF centre and spread    4  (  -0.000000000004435,  -0.000000000000140,   0.000000000005759 )   0.333057784636236
  WF centre and spread    5  (   0.000000000029714,  -0.000000000025483,   0.000000000016868 )   0.321655885902058
  WF centre and spread    6  (  -0.902511733155598,   0.902511733163164,   0.902511733327142 )   0.834471577112564
  WF centre and spread    7  (   0.902511733181579,  -0.902511733189503,  -0.902511733094757 )   0.834471577094338
  Sum of centres and spreads (   0.000000000060832,  -0.000000000081883,   0.000000000334743 )   3.300026421196105
 
         Spreads (Ang^2)       Omega I      =     3.164492840
        ================       Omega D      =     0.008476560
                               Omega OD     =     0.127057021
    Final Spread (Ang^2)       Omega Total  =     3.300026421
 ------------------------------------------------------------------------------
 Time for wannierise            0.035 (sec)

 Writing checkpoint file Cu.chk... done

 *---------------------------------------------------------------------------*
 |                               PLOTTING                                    |
 *---------------------------------------------------------------------------*
 
 
 Calculating interpolated band-structure
 
 Time to calculate interpolated band structure       0.125 (sec)
 
 Time for plotting              0.131 (sec)
 Total Execution Time           0.285 (sec)

 *===========================================================================*
 |                             TIMING INFORMATION                            |
 *===========================================================================*
 |    Tag                                                Ncalls      Time (s)|
 |---------------------------------------------------------------------------|
 |kmesh: get                                        :         1         0.038|
 |overlap: allocate                                 :         1         0.000|
 |overlap: read                                     :         1         0.033|
 |dis: main                                         :         1         0.033|
 |wann: main                                        :         1         0.035|
 |plot: main                                        :         1         0.131|
 *---------------------------------------------------------------------------*
 
 All done: wannier90 exiting
