 
             +---------------------------------------------------+
             |                                                   |
             |                   WANNIER90                       |
             |                                                   |
             +---------------------------------------------------+
             |                                                   |
             |        Welcome to the Maximally-Localized         |
             |        Generalized Wannier Functions code         |
             |            http://www.wannier.org                 |
             |                                                   |
             |                                                   |
             |  Wannier90 Developer Group:                       |
             |    Giovanni Pizzi    (EPFL)                       |
             |    Valerio Vitale    (Cambridge)                  |
             |    David Vanderbilt  (Rutgers University)         |
             |    Nicola Marzari    (EPFL)                       |
             |    Ivo Souza         (Universidad del Pais Vasco) |
             |    Arash A. Mostofi  (Imperial College London)    |
             |    Jonathan R. Yates (University of Oxford)       |
             |                                                   |
             |  For the full list of Wannier90 3.x authors,      |
             |  please check the code documentation and the      |
             |  README on the GitHub page of the code            |
             |                                                   |
             |                                                   |
             |  Please cite                                      |
             |                                                   |
             |  [ref] "Wannier90 as a community code:            |
             |        new features and applications",            |
             |        G. Pizzi et al., J. Phys. Cond. Matt. 32,  |
             |        165902 (2020).                             |
             |        http://doi.org/10.1088/1361-648X/ab51ff    |
             |                                                   |
             |  in any publications arising from the use of      |
             |  this code. For the method please cite            |
             |                                                   |
             |  [ref] "Maximally Localized Generalised Wannier   |
             |         Functions for Composite Energy Bands"     |
             |         N. Marzari and D. Vanderbilt              |
             |         Phys. Rev. B 56 12847 (1997)              |
             |                                                   |
             |  [ref] "Maximally Localized Wannier Functions     |
             |         for Entangled Energy Bands"               |
             |         I. Souza, N. Marzari and D. Vanderbilt    |
             |         Phys. Rev. B 65 035109 (2001)             |
             |                                                   |
             |                                                   |
             | Copyright (c) 1996-2020                           |
             |        The Wannier90 Developer Group and          |
             |        individual contributors                    |
             |                                                   |
             |      Release: 3.1.0        5th March    2020      |
             |                                                   |
             | This program is free software; you can            |
             | redistribute it and/or modify it under the terms  |
             | of the GNU General Public License as published by |
             | the Free Software Foundation; either version 2 of |
             | the License, or (at your option) any later version|
             |                                                   |
             | This program is distributed in the hope that it   |
             | will be useful, but WITHOUT ANY WARRANTY; without |
             | even the implied warranty of MERCHANTABILITY or   |
             | FITNESS FOR A PARTICULAR PURPOSE. See the GNU     |
             | General Public License for more details.          |
             |                                                   |
             | You should have received a copy of the GNU General|
             | Public License along with this program; if not,   |
             | write to the Free Software Foundation, Inc.,      |
             | 675 Mass Ave, Cambridge, MA 02139, USA.           |
             |                                                   |
             +---------------------------------------------------+
             |    Execution started on 30Jul2022 at 02:33:13     |
             +---------------------------------------------------+
 
 ******************************************************************************
 * -> Using CODATA 2010 constant values                                       *
 *    (http://physics.nist.gov/cuu/Constants/index.html)                      *
 * -> Using Bohr value from CODATA                                            *
 ******************************************************************************
 

 Running in serial (with parallel executable)
 
                                    ------
                                    SYSTEM
                                    ------
 
                              Lattice Vectors (Ang)
                    a_1    -1.805023   0.000000   1.805023
                    a_2     0.000000   1.805023   1.805023
                    a_3    -1.805023   1.805023   0.000000
 
                   Unit Cell Volume:      11.76193  (Ang^3)
 
                        Reciprocal-Space Vectors (Ang^-1)
                    b_1    -1.740472  -1.740472   1.740472
                    b_2     1.740472   1.740472   1.740472
                    b_3    -1.740472   1.740472  -1.740472
  
 *----------------------------------------------------------------------------*
 |   Site       Fractional Coordinate          Cartesian Coordinate (Ang)     |
 +----------------------------------------------------------------------------+
 | Cu   1   0.00000   0.00000   0.00000   |    0.00000   0.00000   0.00000    |
 *----------------------------------------------------------------------------*
                                ------------
                                K-POINT GRID
                                ------------
  
             Grid size =  3 x  3 x  3      Total points =   27
  
  
 *---------------------------------- MAIN ------------------------------------*
 |  Number of Wannier Functions               :                 7             |
 |  Number of Objective Wannier Functions     :                 7             |
 |  Number of input Bloch states              :                10             |
 |  Output verbosity (1=low, 5=high)          :                 1             |
 |  Timing Level (1=low, 5=high)              :                 1             |
 |  Optimisation (0=memory, 3=speed)          :                 3             |
 |  Length Unit                               :               Ang             |
 |  Post-processing setup (write *.nnkp)      :                 F             |
 |  Using Gamma-only branch of algorithms     :                 F             |
 *----------------------------------------------------------------------------*
 *------------------------------- WANNIERISE ---------------------------------*
 |  Total number of iterations                :                 0             |
 |  Number of CG steps before reset           :                 5             |
 |  Trial step length for line search         :             2.000             |
 |  Convergence tolerence                     :         0.100E-11             |
 |  Convergence window                        :                 5             |
 |  Iterations between writing output         :                 1             |
 |  Iterations between backing up to disk     :               100             |
 |  Write r^2_nm to file                      :                 F             |
 |  Write xyz WF centres to file              :                 F             |
 |  Write on-site energies <0n|H|0n> to file  :                 F             |
 |  Use guiding centre to control phases      :                 F             |
 |  Use phases for initial projections        :                 F             |
 *----------------------------------------------------------------------------*
 *------------------------------- DISENTANGLE --------------------------------*
 |  Using band disentanglement                :                 T             |
 |  Total number of iterations                :                 0             |
 |  Mixing ratio                              :             1.000             |
 |  Convergence tolerence                     :         1.000E-10             |
 |  Convergence window                        :                 3             |
 *----------------------------------------------------------------------------*
 *-------------------------------- PLOTTING ----------------------------------*
 |  Plotting interpolated bandstructure       :                 T             |
 |   Number of K-path sections                :                 5             |
 |   Divisions along first K-path section     :               100             |
 |   Output format                            :           gnuplot             |
 |   Output mode                              :               s-k             |
 *----------------------------------------------------------------------------*
 |   K-space path sections:                                                   |
 |    From: G       0.000  0.000  0.000     To: X       0.500  0.500  0.000   |
 |    From: X       0.500  0.500  0.000     To: W       0.500  0.750  0.250   |
 |    From: W       0.500  0.750  0.250     To: L       0.000  0.500  0.000   |
 |    From: L       0.000  0.500  0.000     To: G       0.000  0.000  0.000   |
 |    From: G       0.000  0.000  0.000     To: K       0.000  0.500 -0.500   |
 *----------------------------------------------------------------------------*
 Time to read parameters        0.010 (sec)

 *---------------------------------- K-MESH ----------------------------------*
 +----------------------------------------------------------------------------+
 |                    Distance to Nearest-Neighbour Shells                    |
 |                    ------------------------------------                    |
 |          Shell             Distance (Ang^-1)          Multiplicity         |
 |          -----             -----------------          ------------         |
 |             1                   1.004862                      8            |
 |             2                   1.160315                      6            |
 |             3                   1.640933                     12            |
 |             4                   1.924164                     24            |
 |             5                   2.009724                      8            |
 |             6                   2.320629                      6            |
 |             7                   2.528847                     24            |
 |             8                   2.594542                     24            |
 |             9                   2.842179                     24            |
 |            10                   3.014586                     32            |
 |            11                   3.281865                     12            |
 |            12                   3.432257                     48            |
 |            13                   3.480944                     30            |
 |            14                   3.669237                     24            |
 |            15                   3.804346                     24            |
 |            16                   3.848328                     24            |
 |            17                   4.019448                      8            |
 |            18                   4.143152                     48            |
 |            19                   4.183574                     24            |
 |            20                   4.341500                     48            |
 |            21                   4.456273                     72            |
 |            22                   4.641258                      6            |
 |            23                   4.748792                     24            |
 |            24                   4.784100                     48            |
 |            25                   4.922798                     36            |
 |            26                   5.024310                     56            |
 |            27                   5.057694                     24            |
 |            28                   5.189085                     24            |
 |            29                   5.285485                     72            |
 |            30                   5.317230                     48            |
 |            31                   5.442358                     24            |
 |            32                   5.534348                     48            |
 |            33                   5.684357                     24            |
 |            34                   5.772492                     72            |
 |            35                   5.801573                     30            |
 |            36                   5.916467                     72            |
 +----------------------------------------------------------------------------+
 | The b-vectors are chosen automatically                                     |
 | The following shells are used:   1                                         |
 +----------------------------------------------------------------------------+
 |                        Shell   # Nearest-Neighbours                        |
 |                        -----   --------------------                        |
 |                          1               8                                 |
 +----------------------------------------------------------------------------+
 | Completeness relation is fully satisfied [Eq. (B1), PRB 56, 12847 (1997)]  |
 | Completeness relations for higher-order are fully satisfied                |
 +----------------------------------------------------------------------------+
 |                  b_k Vectors (Ang^-1) and Weights (Ang^2)                  |
 |                  ----------------------------------------                  |
 |            No.         b_k(x)      b_k(y)      b_k(z)        w_b           |
 |            ---        --------------------------------     --------        |
 |             1        -0.580157    0.580157   -0.580157     0.371380        |
 |             2         0.580157    0.580157    0.580157     0.371380        |
 |             3        -0.580157   -0.580157    0.580157     0.371380        |
 |             4        -0.580157    0.580157    0.580157     0.371380        |
 |             5         0.580157   -0.580157    0.580157     0.371380        |
 |             6        -0.580157   -0.580157   -0.580157     0.371380        |
 |             7         0.580157    0.580157   -0.580157     0.371380        |
 |             8         0.580157   -0.580157   -0.580157     0.371380        |
 +----------------------------------------------------------------------------+
 |                           b_k Directions (Ang^-1)                          |
 |                           -----------------------                          |
 |            No.           x           y           z                         |
 |            ---        --------------------------------                     |
 |             1        -0.580157    0.580157   -0.580157                     |
 |             2         0.580157    0.580157    0.580157                     |
 |             3        -0.580157   -0.580157    0.580157                     |
 |             4        -0.580157    0.580157    0.580157                     |
 +----------------------------------------------------------------------------+
  
 Time to get kmesh              0.031 (sec)
 *============================================================================*
 |                              MEMORY ESTIMATE                               |
 |         Maximum RAM allocated during each phase of the calculation         |
 *============================================================================*
 |                        Disentanglement            0.59 Mb                  |
 |                            Wannierise:            0.51 Mb                  |
 |                          plot_wannier:            0.51 Mb                  |
 *----------------------------------------------------------------------------*
  
 Starting a new Wannier90 calculation ...


 Reading overlaps from Cu.mmn    :  Created on  4Jul2022 at 21:53: 6

 Reading projections from Cu.amn :  Created on  4Jul2022 at 21:53: 5

 Time to read overlaps          0.029 (sec)

 *------------------------------- DISENTANGLE --------------------------------*
 +----------------------------------------------------------------------------+
 |                              Energy  Windows                               |
 |                              ---------------                               |
 |                   Outer:    8.00509  to   42.76033  (eV)                   |
 |                   No frozen states were specified                          |
 +----------------------------------------------------------------------------+
   Number of target bands to extract:    7

                   Unitarised projection of Wannier functions                  
                   ------------------------------------------                  
   A_mn = <psi_m|g_n> --> S = A.A^+ --> U = S^-1/2.A
   In dis_project... done
   No inner window (linner = F)

                   Extraction of optimally-connected subspace                  
                   ------------------------------------------                  
 +---------------------------------------------------------------------+<-- DIS
 |  Iter     Omega_I(i-1)      Omega_I(i)      Delta (frac.)    Time   |<-- DIS
 +---------------------------------------------------------------------+<-- DIS

     <<< Warning: Maximum number of disentanglement iterations reached >>>
          <<< Disentanglement convergence criteria not satisfied >>>

        Final Omega_I     0.00000000 (Ang^2)

 +----------------------------------------------------------------------------+

 Time to disentangle bands      0.004 (sec)

 Writing checkpoint file Cu.chk... done

 
 *------------------------------- WANNIERISE ---------------------------------*
 +--------------------------------------------------------------------+<-- CONV
 | Iter  Delta Spread     RMS Gradient      Spread (Ang^2)      Time  |<-- CONV
 +--------------------------------------------------------------------+<-- CONV
 
 ------------------------------------------------------------------------------
 Initial State
  WF centre and spread    1  (   0.000000000031795,  -0.000000000002363,   0.000000000001633 )   0.645497438759206
  WF centre and spread    2  (   0.000000000011655,  -0.000000000014041,   0.000000000050861 )   0.443233874291733
  WF centre and spread    3  (  -0.000000000010668,  -0.000000000000238,   0.000000000007437 )   0.443233874292951
  WF centre and spread    4  (  -0.000000000009023,   0.000000000060557,   0.000000000005202 )   0.645419085582191
  WF centre and spread    5  (   0.000000000020657,  -0.000000000010528,   0.000000000015073 )   0.443235745394081
  WF centre and spread    6  (  -0.902511733195872,   0.902511733230109,   0.902511733225530 )   1.009068620386320
  WF centre and spread    7  (   0.902511733227644,  -0.902511733225861,  -0.902511733215263 )   1.009068620373993
  Sum of centres and spreads (   0.000000000076187,   0.000000000037636,   0.000000000090474 )   4.638757259080474
 
      0     0.464E+01     0.0000000000        4.6387572591       0.00  <-- CONV
        O_D=      0.0053952 O_OD=      0.8316921 O_TOT=      4.6387573 <-- SPRD
 ------------------------------------------------------------------------------
 Final State
  WF centre and spread    1  (   0.000000000031795,  -0.000000000002363,   0.000000000001633 )   0.645497438759206
  WF centre and spread    2  (   0.000000000011655,  -0.000000000014041,   0.000000000050861 )   0.443233874291733
  WF centre and spread    3  (  -0.000000000010668,  -0.000000000000238,   0.000000000007437 )   0.443233874292951
  WF centre and spread    4  (  -0.000000000009023,   0.000000000060557,   0.000000000005202 )   0.645419085582191
  WF centre and spread    5  (   0.000000000020657,  -0.000000000010528,   0.000000000015073 )   0.443235745394081
  WF centre and spread    6  (  -0.902511733195872,   0.902511733230109,   0.902511733225530 )   1.009068620386320
  WF centre and spread    7  (   0.902511733227644,  -0.902511733225861,  -0.902511733215263 )   1.009068620373993
  Sum of centres and spreads (   0.000000000076187,   0.000000000037636,   0.000000000090474 )   4.638757259080474
 
         Spreads (Ang^2)       Omega I      =     3.801670048
        ================       Omega D      =     0.005395160
                               Omega OD     =     0.831692051
    Final Spread (Ang^2)       Omega Total  =     4.638757259
 ------------------------------------------------------------------------------
 Time for wannierise            0.001 (sec)

 Writing checkpoint file Cu.chk... done

 *---------------------------------------------------------------------------*
 |                               PLOTTING                                    |
 *---------------------------------------------------------------------------*
 
 
 Calculating interpolated band-structure
 
 Time to calculate interpolated band structure       0.148 (sec)
 
 Time for plotting              0.160 (sec)
 Total Execution Time           0.237 (sec)

 *===========================================================================*
 |                             TIMING INFORMATION                            |
 *===========================================================================*
 |    Tag                                                Ncalls      Time (s)|
 |---------------------------------------------------------------------------|
 |kmesh: get                                        :         1         0.031|
 |overlap: allocate                                 :         1         0.000|
 |overlap: read                                     :         1         0.029|
 |dis: main                                         :         1         0.004|
 |wann: main                                        :         1         0.001|
 |plot: main                                        :         1         0.160|
 *---------------------------------------------------------------------------*
 
 All done: wannier90 exiting
