 
             +---------------------------------------------------+
             |                                                   |
             |                   WANNIER90                       |
             |                                                   |
             +---------------------------------------------------+
             |                                                   |
             |        Welcome to the Maximally-Localized         |
             |        Generalized Wannier Functions code         |
             |            http://www.wannier.org                 |
             |                                                   |
             |                                                   |
             |  Wannier90 Developer Group:                       |
             |    Giovanni Pizzi    (EPFL)                       |
             |    Valerio Vitale    (Cambridge)                  |
             |    David Vanderbilt  (Rutgers University)         |
             |    Nicola Marzari    (EPFL)                       |
             |    Ivo Souza         (Universidad del Pais Vasco) |
             |    Arash A. Mostofi  (Imperial College London)    |
             |    Jonathan R. Yates (University of Oxford)       |
             |                                                   |
             |  For the full list of Wannier90 3.x authors,      |
             |  please check the code documentation and the      |
             |  README on the GitHub page of the code            |
             |                                                   |
             |                                                   |
             |  Please cite                                      |
             |                                                   |
             |  [ref] "Wannier90 as a community code:            |
             |        new features and applications",            |
             |        G. Pizzi et al., J. Phys. Cond. Matt. 32,  |
             |        165902 (2020).                             |
             |        http://doi.org/10.1088/1361-648X/ab51ff    |
             |                                                   |
             |  in any publications arising from the use of      |
             |  this code. For the method please cite            |
             |                                                   |
             |  [ref] "Maximally Localized Generalised Wannier   |
             |         Functions for Composite Energy Bands"     |
             |         N. Marzari and D. Vanderbilt              |
             |         Phys. Rev. B 56 12847 (1997)              |
             |                                                   |
             |  [ref] "Maximally Localized Wannier Functions     |
             |         for Entangled Energy Bands"               |
             |         I. Souza, N. Marzari and D. Vanderbilt    |
             |         Phys. Rev. B 65 035109 (2001)             |
             |                                                   |
             |                                                   |
             | Copyright (c) 1996-2020                           |
             |        The Wannier90 Developer Group and          |
             |        individual contributors                    |
             |                                                   |
             |      Release: 3.1.0        5th March    2020      |
             |                                                   |
             | This program is free software; you can            |
             | redistribute it and/or modify it under the terms  |
             | of the GNU General Public License as published by |
             | the Free Software Foundation; either version 2 of |
             | the License, or (at your option) any later version|
             |                                                   |
             | This program is distributed in the hope that it   |
             | will be useful, but WITHOUT ANY WARRANTY; without |
             | even the implied warranty of MERCHANTABILITY or   |
             | FITNESS FOR A PARTICULAR PURPOSE. See the GNU     |
             | General Public License for more details.          |
             |                                                   |
             | You should have received a copy of the GNU General|
             | Public License along with this program; if not,   |
             | write to the Free Software Foundation, Inc.,      |
             | 675 Mass Ave, Cambridge, MA 02139, USA.           |
             |                                                   |
             +---------------------------------------------------+
             |    Execution started on 30Jul2022 at 02:34:20     |
             +---------------------------------------------------+
 
 ******************************************************************************
 * -> Using CODATA 2010 constant values                                       *
 *    (http://physics.nist.gov/cuu/Constants/index.html)                      *
 * -> Using Bohr value from CODATA                                            *
 ******************************************************************************
 

 Running in serial (with parallel executable)
 
                                    ------
                                    SYSTEM
                                    ------
 
                              Lattice Vectors (Ang)
                    a_1    -1.805023   0.000000   1.805023
                    a_2     0.000000   1.805023   1.805023
                    a_3    -1.805023   1.805023   0.000000
 
                   Unit Cell Volume:      11.76193  (Ang^3)
 
                        Reciprocal-Space Vectors (Ang^-1)
                    b_1    -1.740472  -1.740472   1.740472
                    b_2     1.740472   1.740472   1.740472
                    b_3    -1.740472   1.740472  -1.740472
  
 *----------------------------------------------------------------------------*
 |   Site       Fractional Coordinate          Cartesian Coordinate (Ang)     |
 +----------------------------------------------------------------------------+
 | Cu   1   0.00000   0.00000   0.00000   |    0.00000   0.00000   0.00000    |
 *----------------------------------------------------------------------------*
                                ------------
                                K-POINT GRID
                                ------------
  
             Grid size =  3 x  3 x  3      Total points =   27
  
  
 *---------------------------------- MAIN ------------------------------------*
 |  Number of Wannier Functions               :                 7             |
 |  Number of Objective Wannier Functions     :                 7             |
 |  Number of input Bloch states              :                10             |
 |  Output verbosity (1=low, 5=high)          :                 1             |
 |  Timing Level (1=low, 5=high)              :                 1             |
 |  Optimisation (0=memory, 3=speed)          :                 3             |
 |  Length Unit                               :               Ang             |
 |  Post-processing setup (write *.nnkp)      :                 F             |
 |  Using Gamma-only branch of algorithms     :                 F             |
 *----------------------------------------------------------------------------*
 *------------------------------- WANNIERISE ---------------------------------*
 |  Total number of iterations                :               100             |
 |  Number of CG steps before reset           :                 5             |
 |  Trial step length for line search         :             2.000             |
 |  Convergence tolerence                     :         0.100E-11             |
 |  Convergence window                        :                 5             |
 |  Iterations between writing output         :                 1             |
 |  Iterations between backing up to disk     :               100             |
 |  Write r^2_nm to file                      :                 F             |
 |  Write xyz WF centres to file              :                 F             |
 |  Write on-site energies <0n|H|0n> to file  :                 F             |
 |  Use guiding centre to control phases      :                 F             |
 |  Use phases for initial projections        :                 F             |
 *----------------------------------------------------------------------------*
 *------------------------------- DISENTANGLE --------------------------------*
 |  Using band disentanglement                :                 T             |
 |  Total number of iterations                :               100             |
 |  Mixing ratio                              :             1.000             |
 |  Convergence tolerence                     :         1.000E-10             |
 |  Convergence window                        :                 3             |
 *----------------------------------------------------------------------------*
 *-------------------------------- PLOTTING ----------------------------------*
 |  Plotting interpolated bandstructure       :                 T             |
 |   Number of K-path sections                :                 5             |
 |   Divisions along first K-path section     :               100             |
 |   Output format                            :           gnuplot             |
 |   Output mode                              :               s-k             |
 *----------------------------------------------------------------------------*
 |   K-space path sections:                                                   |
 |    From: G       0.000  0.000  0.000     To: X       0.500  0.500  0.000   |
 |    From: X       0.500  0.500  0.000     To: W       0.500  0.750  0.250   |
 |    From: W       0.500  0.750  0.250     To: L       0.000  0.500  0.000   |
 |    From: L       0.000  0.500  0.000     To: G       0.000  0.000  0.000   |
 |    From: G       0.000  0.000  0.000     To: K       0.000  0.500 -0.500   |
 *----------------------------------------------------------------------------*
 Time to read parameters        0.012 (sec)

 *---------------------------------- K-MESH ----------------------------------*
 +----------------------------------------------------------------------------+
 |                    Distance to Nearest-Neighbour Shells                    |
 |                    ------------------------------------                    |
 |          Shell             Distance (Ang^-1)          Multiplicity         |
 |          -----             -----------------          ------------         |
 |             1                   1.004862                      8            |
 |             2                   1.160315                      6            |
 |             3                   1.640933                     12            |
 |             4                   1.924164                     24            |
 |             5                   2.009724                      8            |
 |             6                   2.320629                      6            |
 |             7                   2.528847                     24            |
 |             8                   2.594542                     24            |
 |             9                   2.842179                     24            |
 |            10                   3.014586                     32            |
 |            11                   3.281865                     12            |
 |            12                   3.432257                     48            |
 |            13                   3.480944                     30            |
 |            14                   3.669237                     24            |
 |            15                   3.804346                     24            |
 |            16                   3.848328                     24            |
 |            17                   4.019448                      8            |
 |            18                   4.143152                     48            |
 |            19                   4.183574                     24            |
 |            20                   4.341500                     48            |
 |            21                   4.456273                     72            |
 |            22                   4.641258                      6            |
 |            23                   4.748792                     24            |
 |            24                   4.784100                     48            |
 |            25                   4.922798                     36            |
 |            26                   5.024310                     56            |
 |            27                   5.057694                     24            |
 |            28                   5.189085                     24            |
 |            29                   5.285485                     72            |
 |            30                   5.317230                     48            |
 |            31                   5.442358                     24            |
 |            32                   5.534348                     48            |
 |            33                   5.684357                     24            |
 |            34                   5.772492                     72            |
 |            35                   5.801573                     30            |
 |            36                   5.916467                     72            |
 +----------------------------------------------------------------------------+
 | The b-vectors are chosen automatically                                     |
 | The following shells are used:   1                                         |
 +----------------------------------------------------------------------------+
 |                        Shell   # Nearest-Neighbours                        |
 |                        -----   --------------------                        |
 |                          1               8                                 |
 +----------------------------------------------------------------------------+
 | Completeness relation is fully satisfied [Eq. (B1), PRB 56, 12847 (1997)]  |
 | Completeness relations for higher-order are fully satisfied                |
 +----------------------------------------------------------------------------+
 |                  b_k Vectors (Ang^-1) and Weights (Ang^2)                  |
 |                  ----------------------------------------                  |
 |            No.         b_k(x)      b_k(y)      b_k(z)        w_b           |
 |            ---        --------------------------------     --------        |
 |             1        -0.580157    0.580157   -0.580157     0.371380        |
 |             2         0.580157    0.580157    0.580157     0.371380        |
 |             3        -0.580157   -0.580157    0.580157     0.371380        |
 |             4        -0.580157    0.580157    0.580157     0.371380        |
 |             5         0.580157   -0.580157    0.580157     0.371380        |
 |             6        -0.580157   -0.580157   -0.580157     0.371380        |
 |             7         0.580157    0.580157   -0.580157     0.371380        |
 |             8         0.580157   -0.580157   -0.580157     0.371380        |
 +----------------------------------------------------------------------------+
 |                           b_k Directions (Ang^-1)                          |
 |                           -----------------------                          |
 |            No.           x           y           z                         |
 |            ---        --------------------------------                     |
 |             1        -0.580157    0.580157   -0.580157                     |
 |             2         0.580157    0.580157    0.580157                     |
 |             3        -0.580157   -0.580157    0.580157                     |
 |             4        -0.580157    0.580157    0.580157                     |
 +----------------------------------------------------------------------------+
  
 Time to get kmesh              0.038 (sec)
 *============================================================================*
 |                              MEMORY ESTIMATE                               |
 |         Maximum RAM allocated during each phase of the calculation         |
 *============================================================================*
 |                        Disentanglement            0.59 Mb                  |
 |                            Wannierise:            0.51 Mb                  |
 |                          plot_wannier:            0.51 Mb                  |
 *----------------------------------------------------------------------------*
  
 Starting a new Wannier90 calculation ...


 Reading overlaps from Cu.mmn    :  Created on  4Jul2022 at 21:53: 6

 Reading projections from Cu.amn :  Created on  4Jul2022 at 21:53: 5

 Time to read overlaps          0.033 (sec)

 *------------------------------- DISENTANGLE --------------------------------*
 +----------------------------------------------------------------------------+
 |                              Energy  Windows                               |
 |                              ---------------                               |
 |                   Outer:    8.00509  to   42.76033  (eV)                   |
 |                   Inner:    8.00509  to   20.00000  (eV)                   |
 +----------------------------------------------------------------------------+
   Number of target bands to extract:    7

                   Unitarised projection of Wannier functions                  
                   ------------------------------------------                  
   A_mn = <psi_m|g_n> --> S = A.A^+ --> U = S^-1/2.A
   In dis_project... done
   Using an inner window (linner = T)
   In dis_proj_froz... done

                   Extraction of optimally-connected subspace                  
                   ------------------------------------------                  
 +---------------------------------------------------------------------+<-- DIS
 |  Iter     Omega_I(i-1)      Omega_I(i)      Delta (frac.)    Time   |<-- DIS
 +---------------------------------------------------------------------+<-- DIS
       1       3.49936932       3.48517846       4.072E-03      0.00    <-- DIS
       2       3.48515527       3.48513373       6.179E-06      0.00    <-- DIS
       3       3.48513368       3.48513363       1.463E-08      0.00    <-- DIS
       4       3.48513363       3.48513363       4.919E-11      0.00    <-- DIS
       5       3.48513363       3.48513363       3.173E-13      0.01    <-- DIS
       6       3.48513363       3.48513363       6.883E-15      0.01    <-- DIS

             <<<      Delta < 1.000E-10  over  3 iterations     >>>
             <<< Disentanglement convergence criteria satisfied >>>

        Final Omega_I     3.48513363 (Ang^2)

 +----------------------------------------------------------------------------+

 Time to disentangle bands      0.013 (sec)

 Writing checkpoint file Cu.chk... done

 
 *------------------------------- WANNIERISE ---------------------------------*
 +--------------------------------------------------------------------+<-- CONV
 | Iter  Delta Spread     RMS Gradient      Spread (Ang^2)      Time  |<-- CONV
 +--------------------------------------------------------------------+<-- CONV
 
 ------------------------------------------------------------------------------
 Initial State
  WF centre and spread    1  (   0.000000000006341,  -0.000000000004505,   0.000000000004798 )   0.446215235277544
  WF centre and spread    2  (   0.000000000016016,  -0.000000000012776,   0.000000000053029 )   0.393838656827219
  WF centre and spread    3  (  -0.000000000010595,  -0.000000000003602,   0.000000000009013 )   0.393838656815328
  WF centre and spread    4  (   0.000000000000394,   0.000000000007879,   0.000000000006707 )   0.446082932364140
  WF centre and spread    5  (   0.000000000018521,  -0.000000000012177,   0.000000000015329 )   0.393834640528607
  WF centre and spread    6  (  -0.902511733182307,   0.902511733200565,   0.902511733274747 )   1.083369536813853
  WF centre and spread    7  (   0.902511733234986,  -0.902511733227079,  -0.902511733178466 )   1.083369536788594
  Sum of centres and spreads (   0.000000000083357,  -0.000000000051697,   0.000000000185157 )   4.240549195415285
 
      0     0.424E+01     0.0000000000        4.2405491954       0.03  <-- CONV
        O_D=      0.0128078 O_OD=      0.7426078 O_TOT=      4.2405492 <-- SPRD
 ------------------------------------------------------------------------------
 Cycle:      1
  WF centre and spread    1  (   0.000000000007943,  -0.000000000005088,   0.000000000000897 )   0.447016836082108
  WF centre and spread    2  (   0.000000000018982,  -0.000000000014096,   0.000000000056266 )   0.345584962217792
  WF centre and spread    3  (  -0.000000000014484,  -0.000000000008976,   0.000000000011170 )   0.345584962205707
  WF centre and spread    4  (  -0.000000000003142,   0.000000000006741,   0.000000000006113 )   0.446807257845104
  WF centre and spread    5  (   0.000000000024858,  -0.000000000017393,   0.000000000018514 )   0.345587287001868
  WF centre and spread    6  (  -0.902511733181651,   0.902511733205453,   0.902511733271975 )   0.984714010732305
  WF centre and spread    7  (   0.902511733228810,  -0.902511733221372,  -0.902511733177909 )   0.984714010700617
  Sum of centres and spreads (   0.000000000081316,  -0.000000000054731,   0.000000000187026 )   3.900009326785501
 
      1    -0.341E+00     0.3527697456        3.9000093268       0.03  <-- CONV
        O_D=      0.0174632 O_OD=      0.3974125 O_TOT=      3.9000093 <-- SPRD
 Delta: O_D=  0.4655465E-02 O_OD= -0.3451953E+00 O_TOT= -0.3405399E+00 <-- DLTA
 ------------------------------------------------------------------------------
 Cycle:      2
  WF centre and spread    1  (   0.000000000007889,  -0.000000000005096,  -0.000000000002452 )   0.439072312301946
  WF centre and spread    2  (   0.000000000020313,  -0.000000000013861,   0.000000000057547 )   0.349311648439897
  WF centre and spread    3  (  -0.000000000015045,  -0.000000000010084,   0.000000000013713 )   0.349311648433221
  WF centre and spread    4  (  -0.000000000004360,   0.000000000007060,   0.000000000006238 )   0.439006582401766
  WF centre and spread    5  (   0.000000000027439,  -0.000000000019618,   0.000000000018520 )   0.349316425207552
  WF centre and spread    6  (  -0.902511733182256,   0.902511733206993,   0.902511733272961 )   0.944270727174893
  WF centre and spread    7  (   0.902511733230385,  -0.902511733219068,  -0.902511733175917 )   0.944270727152451
  Sum of centres and spreads (   0.000000000084365,  -0.000000000053675,   0.000000000190610 )   3.814560071111726
 
      2    -0.854E-01     0.2239914015        3.8145600711       0.03  <-- CONV
        O_D=      0.0071601 O_OD=      0.3222663 O_TOT=      3.8145601 <-- SPRD
 Delta: O_D= -0.1030309E-01 O_OD= -0.7514617E-01 O_TOT= -0.8544926E-01 <-- DLTA
 ------------------------------------------------------------------------------
 Cycle:      3
  WF centre and spread    1  (   0.000000000007919,  -0.000000000004932,  -0.000000000002887 )   0.437747782596100
  WF centre and spread    2  (   0.000000000020092,  -0.000000000014006,   0.000000000057295 )   0.349726969987558
  WF centre and spread    3  (  -0.000000000015090,  -0.000000000010135,   0.000000000013892 )   0.349726969983391
  WF centre and spread    4  (  -0.000000000004513,   0.000000000006967,   0.000000000006324 )   0.437743295231392
  WF centre and spread    5  (   0.000000000027666,  -0.000000000020263,   0.000000000018370 )   0.349725829510312
  WF centre and spread    6  (  -0.902511733182524,   0.902511733206357,   0.902511733272633 )   0.940793356352209
  WF centre and spread    7  (   0.902511733230030,  -0.902511733218310,  -0.902511733175294 )   0.940793356331084
  Sum of centres and spreads (   0.000000000083580,  -0.000000000054321,   0.000000000190334 )   3.806257559992046
 
      3    -0.830E-02     0.0853887924        3.8062575600       0.04  <-- CONV
        O_D=      0.0046664 O_OD=      0.3164576 O_TOT=      3.8062576 <-- SPRD
 Delta: O_D= -0.2493781E-02 O_OD= -0.5808730E-02 O_TOT= -0.8302511E-02 <-- DLTA
 ------------------------------------------------------------------------------
 Cycle:      4
  WF centre and spread    1  (   0.000000000007903,  -0.000000000004957,  -0.000000000002882 )   0.437711059307614
  WF centre and spread    2  (   0.000000000020118,  -0.000000000014082,   0.000000000057306 )   0.349396151546454
  WF centre and spread    3  (  -0.000000000015127,  -0.000000000010084,   0.000000000013983 )   0.349396151542176
  WF centre and spread    4  (  -0.000000000004426,   0.000000000006943,   0.000000000006319 )   0.437715385379846
  WF centre and spread    5  (   0.000000000027675,  -0.000000000020206,   0.000000000018440 )   0.349392652774603
  WF centre and spread    6  (  -0.902511733182225,   0.902511733206353,   0.902511733273201 )   0.941252460081717
  WF centre and spread    7  (   0.902511733230518,  -0.902511733218611,  -0.902511733174958 )   0.941252460060838
  Sum of centres and spreads (   0.000000000084437,  -0.000000000054645,   0.000000000191409 )   3.806116320693248
 
      4    -0.141E-03     0.0102149023        3.8061163207       0.04  <-- CONV
        O_D=      0.0045939 O_OD=      0.3163888 O_TOT=      3.8061163 <-- SPRD
 Delta: O_D= -0.7247151E-04 O_OD= -0.6876779E-04 O_TOT= -0.1412393E-03 <-- DLTA
 ------------------------------------------------------------------------------
 Cycle:      5
  WF centre and spread    1  (   0.000000000007897,  -0.000000000005003,  -0.000000000002929 )   0.437703198866530
  WF centre and spread    2  (   0.000000000020093,  -0.000000000014082,   0.000000000057247 )   0.348814627506181
  WF centre and spread    3  (  -0.000000000015252,  -0.000000000010018,   0.000000000014087 )   0.348814627501691
  WF centre and spread    4  (  -0.000000000004395,   0.000000000006862,   0.000000000006331 )   0.437713396295948
  WF centre and spread    5  (   0.000000000027651,  -0.000000000020107,   0.000000000018359 )   0.348810153554256
  WF centre and spread    6  (  -0.902511733182208,   0.902511733206492,   0.902511733273191 )   0.942098130037220
  WF centre and spread    7  (   0.902511733230480,  -0.902511733218515,  -0.902511733174835 )   0.942098130015662
  Sum of centres and spreads (   0.000000000084265,  -0.000000000054370,   0.000000000191450 )   3.806052263777488
 
      5    -0.641E-04     0.0049518208        3.8060522638       0.04  <-- CONV
        O_D=      0.0046105 O_OD=      0.3163081 O_TOT=      3.8060523 <-- SPRD
 Delta: O_D=  0.1664811E-04 O_OD= -0.8070503E-04 O_TOT= -0.6405692E-04 <-- DLTA
 ------------------------------------------------------------------------------
 Cycle:      6
  WF centre and spread    1  (   0.000000000007935,  -0.000000000005029,  -0.000000000002865 )   0.437710895068942
  WF centre and spread    2  (   0.000000000020101,  -0.000000000014101,   0.000000000057267 )   0.348700901074078
  WF centre and spread    3  (  -0.000000000015201,  -0.000000000010026,   0.000000000014107 )   0.348700901069537
  WF centre and spread    4  (  -0.000000000004332,   0.000000000006798,   0.000000000006322 )   0.437718847766287
  WF centre and spread    5  (   0.000000000027672,  -0.000000000020101,   0.000000000018403 )   0.348697640087668
  WF centre and spread    6  (  -0.902511733181949,   0.902511733206462,   0.902511733273560 )   0.942257263663324
  WF centre and spread    7  (   0.902511733230803,  -0.902511733218638,  -0.902511733174691 )   0.942257263641582
  Sum of centres and spreads (   0.000000000085028,  -0.000000000054634,   0.000000000192102 )   3.806043712371419
 
      6    -0.855E-05     0.0023148688        3.8060437124       0.05  <-- CONV
        O_D=      0.0046482 O_OD=      0.3162619 O_TOT=      3.8060437 <-- SPRD
 Delta: O_D=  0.3766751E-04 O_OD= -0.4621892E-04 O_TOT= -0.8551406E-05 <-- DLTA
 ------------------------------------------------------------------------------
 Cycle:      7
  WF centre and spread    1  (   0.000000000007926,  -0.000000000005023,  -0.000000000002905 )   0.437712293900277
  WF centre and spread    2  (   0.000000000020083,  -0.000000000014079,   0.000000000057252 )   0.348702531206513
  WF centre and spread    3  (  -0.000000000015237,  -0.000000000010023,   0.000000000014093 )   0.348702531201975
  WF centre and spread    4  (  -0.000000000004369,   0.000000000006808,   0.000000000006329 )   0.437719528248682
  WF centre and spread    5  (   0.000000000027658,  -0.000000000020082,   0.000000000018356 )   0.348699206198379
  WF centre and spread    6  (  -0.902511733182119,   0.902511733206539,   0.902511733273295 )   0.942253470150543
  WF centre and spread    7  (   0.902511733230553,  -0.902511733218492,  -0.902511733174826 )   0.942253470128699
  Sum of centres and spreads (   0.000000000084495,  -0.000000000054352,   0.000000000191595 )   3.806043031035067
 
      7    -0.681E-06     0.0008092583        3.8060430310       0.05  <-- CONV
        O_D=      0.0046486 O_OD=      0.3162609 O_TOT=      3.8060430 <-- SPRD
 Delta: O_D=  0.3581935E-06 O_OD= -0.1039530E-05 O_TOT= -0.6813363E-06 <-- DLTA
 ------------------------------------------------------------------------------
 Cycle:      8
  WF centre and spread    1  (   0.000000000007933,  -0.000000000005026,  -0.000000000002890 )   0.437713142655288
  WF centre and spread    2  (   0.000000000020087,  -0.000000000014085,   0.000000000057260 )   0.348702819311224
  WF centre and spread    3  (  -0.000000000015217,  -0.000000000010027,   0.000000000014091 )   0.348702819306692
  WF centre and spread    4  (  -0.000000000004354,   0.000000000006795,   0.000000000006324 )   0.437719846092313
  WF centre and spread    5  (   0.000000000027663,  -0.000000000020086,   0.000000000018373 )   0.348699511144649
  WF centre and spread    6  (  -0.902511733182053,   0.902511733206519,   0.902511733273391 )   0.942252410946146
  WF centre and spread    7  (   0.902511733230651,  -0.902511733218530,  -0.902511733174780 )   0.942252410924301
  Sum of centres and spreads (   0.000000000084710,  -0.000000000054440,   0.000000000191770 )   3.806042960380614
 
      8    -0.707E-07     0.0002247359        3.8060429604       0.06  <-- CONV
        O_D=      0.0046495 O_OD=      0.3162598 O_TOT=      3.8060430 <-- SPRD
 Delta: O_D=  0.9502841E-06 O_OD= -0.1020939E-05 O_TOT= -0.7065446E-07 <-- DLTA
 ------------------------------------------------------------------------------
 Cycle:      9
  WF centre and spread    1  (   0.000000000007931,  -0.000000000005025,  -0.000000000002903 )   0.437713188515180
  WF centre and spread    2  (   0.000000000020084,  -0.000000000014081,   0.000000000057257 )   0.348703108255991
  WF centre and spread    3  (  -0.000000000015225,  -0.000000000010025,   0.000000000014089 )   0.348703108251460
  WF centre and spread    4  (  -0.000000000004364,   0.000000000006797,   0.000000000006326 )   0.437719841521960
  WF centre and spread    5  (   0.000000000027660,  -0.000000000020084,   0.000000000018364 )   0.348699806921107
  WF centre and spread    6  (  -0.902511733182088,   0.902511733206537,   0.902511733273340 )   0.942251952719949
  WF centre and spread    7  (   0.902511733230599,  -0.902511733218503,  -0.902511733174809 )   0.942251952698105
  Sum of centres and spreads (   0.000000000084597,  -0.000000000054384,   0.000000000191664 )   3.806042958883754
 
      9    -0.150E-08     0.0000378534        3.8060429589       0.06  <-- CONV
        O_D=      0.0046495 O_OD=      0.3162599 O_TOT=      3.8060430 <-- SPRD
 Delta: O_D= -0.2998723E-07 O_OD=  0.2849038E-07 O_TOT= -0.1496848E-08 <-- DLTA
 ------------------------------------------------------------------------------
 Cycle:     10
  WF centre and spread    1  (   0.000000000007932,  -0.000000000005026,  -0.000000000002900 )   0.437713202640271
  WF centre and spread    2  (   0.000000000020086,  -0.000000000014083,   0.000000000057259 )   0.348703528040342
  WF centre and spread    3  (  -0.000000000015219,  -0.000000000010026,   0.000000000014088 )   0.348703528035815
  WF centre and spread    4  (  -0.000000000004360,   0.000000000006793,   0.000000000006325 )   0.437719839116005
  WF centre and spread    5  (   0.000000000027661,  -0.000000000020085,   0.000000000018370 )   0.348700226017314
  WF centre and spread    6  (  -0.902511733182067,   0.902511733206530,   0.902511733273369 )   0.942251317485777
  WF centre and spread    7  (   0.902511733230628,  -0.902511733218514,  -0.902511733174791 )   0.942251317463944
  Sum of centres and spreads (   0.000000000084661,  -0.000000000054411,   0.000000000191720 )   3.806042958799468
 
     10    -0.843E-10     0.0000068549        3.8060429588       0.06  <-- CONV
        O_D=      0.0046494 O_OD=      0.3162599 O_TOT=      3.8060430 <-- SPRD
 Delta: O_D= -0.7679052E-07 O_OD=  0.7670624E-07 O_TOT= -0.8427659E-10 <-- DLTA
 ------------------------------------------------------------------------------
 Cycle:     11
  WF centre and spread    1  (   0.000000000007930,  -0.000000000005025,  -0.000000000002912 )   0.437713207606615
  WF centre and spread    2  (   0.000000000020084,  -0.000000000014080,   0.000000000057258 )   0.348703934250395
  WF centre and spread    3  (  -0.000000000015223,  -0.000000000010025,   0.000000000014086 )   0.348703934245870
  WF centre and spread    4  (  -0.000000000004367,   0.000000000006794,   0.000000000006326 )   0.437719839791077
  WF centre and spread    5  (   0.000000000027659,  -0.000000000020084,   0.000000000018364 )   0.348700627261730
  WF centre and spread    6  (  -0.902511733182089,   0.902511733206543,   0.902511733273339 )   0.942250707813860
  WF centre and spread    7  (   0.902511733230596,  -0.902511733218496,  -0.902511733174810 )   0.942250707792037
  Sum of centres and spreads (   0.000000000084589,  -0.000000000054375,   0.000000000191651 )   3.806042958761584
 
     11    -0.379E-10     0.0000042786        3.8060429588       0.06  <-- CONV
        O_D=      0.0046494 O_OD=      0.3162600 O_TOT=      3.8060430 <-- SPRD
 Delta: O_D= -0.3106026E-07 O_OD=  0.3102238E-07 O_TOT= -0.3788481E-10 <-- DLTA
 ------------------------------------------------------------------------------
 Cycle:     12
  WF centre and spread    1  (   0.000000000007931,  -0.000000000005026,  -0.000000000002905 )   0.437713199320616
  WF centre and spread    2  (   0.000000000020086,  -0.000000000014083,   0.000000000057260 )   0.348703996972308
  WF centre and spread    3  (  -0.000000000015218,  -0.000000000010026,   0.000000000014087 )   0.348703996967784
  WF centre and spread    4  (  -0.000000000004362,   0.000000000006790,   0.000000000006325 )   0.437719837370672
  WF centre and spread    5  (   0.000000000027660,  -0.000000000020085,   0.000000000018370 )   0.348700689160008
  WF centre and spread    6  (  -0.902511733182066,   0.902511733206533,   0.902511733273371 )   0.942250619494406
  WF centre and spread    7  (   0.902511733230628,  -0.902511733218511,  -0.902511733174789 )   0.942250619472588
  Sum of centres and spreads (   0.000000000084660,  -0.000000000054408,   0.000000000191717 )   3.806042958758383
 
     12    -0.320E-11     0.0000016127        3.8060429588       0.07  <-- CONV
        O_D=      0.0046494 O_OD=      0.3162600 O_TOT=      3.8060430 <-- SPRD
 Delta: O_D=  0.1294334E-08 O_OD= -0.1297530E-08 O_TOT= -0.3196554E-11 <-- DLTA
 ------------------------------------------------------------------------------
 Cycle:     13
  WF centre and spread    1  (   0.000000000007931,  -0.000000000005026,  -0.000000000002906 )   0.437713199290665
  WF centre and spread    2  (   0.000000000020086,  -0.000000000014083,   0.000000000057259 )   0.348703996712584
  WF centre and spread    3  (  -0.000000000015218,  -0.000000000010026,   0.000000000014087 )   0.348703996708058
  WF centre and spread    4  (  -0.000000000004362,   0.000000000006790,   0.000000000006325 )   0.437719837400239
  WF centre and spread    5  (   0.000000000027660,  -0.000000000020085,   0.000000000018369 )   0.348700688920635
  WF centre and spread    6  (  -0.902511733182067,   0.902511733206533,   0.902511733273369 )   0.942250619873989
  WF centre and spread    7  (   0.902511733230626,  -0.902511733218510,  -0.902511733174790 )   0.942250619852170
  Sum of centres and spreads (   0.000000000084656,  -0.000000000054406,   0.000000000191713 )   3.806042958758342
 
     13    -0.462E-13     0.0000005213        3.8060429588       0.07  <-- CONV
        O_D=      0.0046494 O_OD=      0.3162600 O_TOT=      3.8060430 <-- SPRD
 Delta: O_D=  0.7001988E-10 O_OD= -0.7006562E-10 O_TOT= -0.4618528E-13 <-- DLTA
 ------------------------------------------------------------------------------
 Cycle:     14
  WF centre and spread    1  (   0.000000000007931,  -0.000000000005026,  -0.000000000002910 )   0.437713198980176
  WF centre and spread    2  (   0.000000000020085,  -0.000000000014081,   0.000000000057258 )   0.348703993965102
  WF centre and spread    3  (  -0.000000000015221,  -0.000000000010026,   0.000000000014086 )   0.348703993960574
  WF centre and spread    4  (  -0.000000000004366,   0.000000000006792,   0.000000000006326 )   0.437719837713327
  WF centre and spread    5  (   0.000000000027659,  -0.000000000020085,   0.000000000018366 )   0.348700686383905
  WF centre and spread    6  (  -0.902511733182080,   0.902511733206539,   0.902511733273352 )   0.942250623888411
  WF centre and spread    7  (   0.902511733230609,  -0.902511733218502,  -0.902511733174801 )   0.942250623866593
  Sum of centres and spreads (   0.000000000084616,  -0.000000000054388,   0.000000000191677 )   3.806042958758088
 
     14    -0.246E-12     0.0000004810        3.8060429588       0.07  <-- CONV
        O_D=      0.0046494 O_OD=      0.3162600 O_TOT=      3.8060430 <-- SPRD
 Delta: O_D=  0.7206957E-09 O_OD= -0.7209420E-09 O_TOT= -0.2460254E-12 <-- DLTA
 ------------------------------------------------------------------------------
 Cycle:     15
  WF centre and spread    1  (   0.000000000007931,  -0.000000000005026,  -0.000000000002910 )   0.437713198969014
  WF centre and spread    2  (   0.000000000020085,  -0.000000000014081,   0.000000000057258 )   0.348703993760812
  WF centre and spread    3  (  -0.000000000015221,  -0.000000000010026,   0.000000000014086 )   0.348703993756283
  WF centre and spread    4  (  -0.000000000004366,   0.000000000006792,   0.000000000006326 )   0.437719837736911
  WF centre and spread    5  (   0.000000000027659,  -0.000000000020085,   0.000000000018366 )   0.348700686186750
  WF centre and spread    6  (  -0.902511733182080,   0.902511733206539,   0.902511733273352 )   0.942250624185065
  WF centre and spread    7  (   0.902511733230609,  -0.902511733218502,  -0.902511733174801 )   0.942250624163248
  Sum of centres and spreads (   0.000000000084617,  -0.000000000054388,   0.000000000191678 )   3.806042958758084
 
     15    -0.266E-14     0.0000001074        3.8060429588       0.07  <-- CONV
        O_D=      0.0046494 O_OD=      0.3162600 O_TOT=      3.8060430 <-- SPRD
 Delta: O_D=  0.1654439E-10 O_OD= -0.1654682E-10 O_TOT= -0.2664535E-14 <-- DLTA
 ------------------------------------------------------------------------------
 Cycle:     16
  WF centre and spread    1  (   0.000000000007931,  -0.000000000005026,  -0.000000000002910 )   0.437713198937505
  WF centre and spread    2  (   0.000000000020085,  -0.000000000014081,   0.000000000057259 )   0.348703993122207
  WF centre and spread    3  (  -0.000000000015221,  -0.000000000010026,   0.000000000014086 )   0.348703993117681
  WF centre and spread    4  (  -0.000000000004366,   0.000000000006792,   0.000000000006326 )   0.437719837809853
  WF centre and spread    5  (   0.000000000027660,  -0.000000000020085,   0.000000000018366 )   0.348700685568173
  WF centre and spread    6  (  -0.902511733182079,   0.902511733206539,   0.902511733273353 )   0.942250625112241
  WF centre and spread    7  (   0.902511733230610,  -0.902511733218503,  -0.902511733174800 )   0.942250625090421
  Sum of centres and spreads (   0.000000000084620,  -0.000000000054390,   0.000000000191680 )   3.806042958758082
 
     16    -0.488E-14     0.0000001005        3.8060429588       0.08  <-- CONV
        O_D=      0.0046494 O_OD=      0.3162600 O_TOT=      3.8060430 <-- SPRD
 Delta: O_D=  0.4409147E-10 O_OD= -0.4409667E-10 O_TOT= -0.4884981E-14 <-- DLTA
 ------------------------------------------------------------------------------
 Cycle:     17
  WF centre and spread    1  (   0.000000000007931,  -0.000000000005026,  -0.000000000002909 )   0.437713198920038
  WF centre and spread    2  (   0.000000000020085,  -0.000000000014082,   0.000000000057259 )   0.348703992720074
  WF centre and spread    3  (  -0.000000000015221,  -0.000000000010026,   0.000000000014086 )   0.348703992715547
  WF centre and spread    4  (  -0.000000000004365,   0.000000000006792,   0.000000000006326 )   0.437719837853982
  WF centre and spread    5  (   0.000000000027660,  -0.000000000020085,   0.000000000018367 )   0.348700685177237
  WF centre and spread    6  (  -0.902511733182078,   0.902511733206538,   0.902511733273354 )   0.942250625696505
  WF centre and spread    7  (   0.902511733230611,  -0.902511733218503,  -0.902511733174799 )   0.942250625674687
  Sum of centres and spreads (   0.000000000084621,  -0.000000000054390,   0.000000000191682 )   3.806042958758070
 
     17    -0.400E-14     0.0000000819        3.8060429588       0.08  <-- CONV
        O_D=      0.0046494 O_OD=      0.3162600 O_TOT=      3.8060430 <-- SPRD
 Delta: O_D=  0.2637710E-10 O_OD= -0.2638062E-10 O_TOT= -0.3996803E-14 <-- DLTA
 ------------------------------------------------------------------------------

             <<<     Delta < 1.000E-12  over  5 iterations     >>>
             <<< Wannierisation convergence criteria satisfied >>>

 Final State
  WF centre and spread    1  (   0.000000000007931,  -0.000000000005026,  -0.000000000002909 )   0.437713198920038
  WF centre and spread    2  (   0.000000000020085,  -0.000000000014082,   0.000000000057259 )   0.348703992720074
  WF centre and spread    3  (  -0.000000000015221,  -0.000000000010026,   0.000000000014086 )   0.348703992715547
  WF centre and spread    4  (  -0.000000000004365,   0.000000000006792,   0.000000000006326 )   0.437719837853982
  WF centre and spread    5  (   0.000000000027660,  -0.000000000020085,   0.000000000018367 )   0.348700685177237
  WF centre and spread    6  (  -0.902511733182078,   0.902511733206538,   0.902511733273354 )   0.942250625696505
  WF centre and spread    7  (   0.902511733230611,  -0.902511733218503,  -0.902511733174799 )   0.942250625674687
  Sum of centres and spreads (   0.000000000084621,  -0.000000000054390,   0.000000000191682 )   3.806042958758070
 
         Spreads (Ang^2)       Omega I      =     3.485133625
        ================       Omega D      =     0.004649370
                               Omega OD     =     0.316259964
    Final Spread (Ang^2)       Omega Total  =     3.806042959
 ------------------------------------------------------------------------------
 Time for wannierise            0.055 (sec)

 Writing checkpoint file Cu.chk... done

 *---------------------------------------------------------------------------*
 |                               PLOTTING                                    |
 *---------------------------------------------------------------------------*
 
 
 Calculating interpolated band-structure
 
 Time to calculate interpolated band structure       0.125 (sec)
 
 Time for plotting              0.134 (sec)
 Total Execution Time           0.286 (sec)

 *===========================================================================*
 |                             TIMING INFORMATION                            |
 *===========================================================================*
 |    Tag                                                Ncalls      Time (s)|
 |---------------------------------------------------------------------------|
 |kmesh: get                                        :         1         0.038|
 |overlap: allocate                                 :         1         0.000|
 |overlap: read                                     :         1         0.033|
 |dis: main                                         :         1         0.013|
 |wann: main                                        :         1         0.055|
 |plot: main                                        :         1         0.134|
 *---------------------------------------------------------------------------*
 
 All done: wannier90 exiting
