 
             +---------------------------------------------------+
             |                                                   |
             |                   WANNIER90                       |
             |                                                   |
             +---------------------------------------------------+
             |                                                   |
             |        Welcome to the Maximally-Localized         |
             |        Generalized Wannier Functions code         |
             |            http://www.wannier.org                 |
             |                                                   |
             |                                                   |
             |  Wannier90 Developer Group:                       |
             |    Giovanni Pizzi    (EPFL)                       |
             |    Valerio Vitale    (Cambridge)                  |
             |    David Vanderbilt  (Rutgers University)         |
             |    Nicola Marzari    (EPFL)                       |
             |    Ivo Souza         (Universidad del Pais Vasco) |
             |    Arash A. Mostofi  (Imperial College London)    |
             |    Jonathan R. Yates (University of Oxford)       |
             |                                                   |
             |  For the full list of Wannier90 3.x authors,      |
             |  please check the code documentation and the      |
             |  README on the GitHub page of the code            |
             |                                                   |
             |                                                   |
             |  Please cite                                      |
             |                                                   |
             |  [ref] "Wannier90 as a community code:            |
             |        new features and applications",            |
             |        G. Pizzi et al., J. Phys. Cond. Matt. 32,  |
             |        165902 (2020).                             |
             |        http://doi.org/10.1088/1361-648X/ab51ff    |
             |                                                   |
             |  in any publications arising from the use of      |
             |  this code. For the method please cite            |
             |                                                   |
             |  [ref] "Maximally Localized Generalised Wannier   |
             |         Functions for Composite Energy Bands"     |
             |         N. Marzari and D. Vanderbilt              |
             |         Phys. Rev. B 56 12847 (1997)              |
             |                                                   |
             |  [ref] "Maximally Localized Wannier Functions     |
             |         for Entangled Energy Bands"               |
             |         I. Souza, N. Marzari and D. Vanderbilt    |
             |         Phys. Rev. B 65 035109 (2001)             |
             |                                                   |
             |                                                   |
             | Copyright (c) 1996-2020                           |
             |        The Wannier90 Developer Group and          |
             |        individual contributors                    |
             |                                                   |
             |      Release: 3.1.0        5th March    2020      |
             |                                                   |
             | This program is free software; you can            |
             | redistribute it and/or modify it under the terms  |
             | of the GNU General Public License as published by |
             | the Free Software Foundation; either version 2 of |
             | the License, or (at your option) any later version|
             |                                                   |
             | This program is distributed in the hope that it   |
             | will be useful, but WITHOUT ANY WARRANTY; without |
             | even the implied warranty of MERCHANTABILITY or   |
             | FITNESS FOR A PARTICULAR PURPOSE. See the GNU     |
             | General Public License for more details.          |
             |                                                   |
             | You should have received a copy of the GNU General|
             | Public License along with this program; if not,   |
             | write to the Free Software Foundation, Inc.,      |
             | 675 Mass Ave, Cambridge, MA 02139, USA.           |
             |                                                   |
             +---------------------------------------------------+
             |    Execution started on 30Jul2022 at 16:18:37     |
             +---------------------------------------------------+
 
 ******************************************************************************
 * -> Using CODATA 2010 constant values                                       *
 *    (http://physics.nist.gov/cuu/Constants/index.html)                      *
 * -> Using Bohr value from CODATA                                            *
 ******************************************************************************
 

 Running in parallel on   4 CPUs

 
                                    ------
                                    SYSTEM
                                    ------
 
                              Lattice Vectors (Ang)
                    a_1    -2.715547   0.000000   2.715547
                    a_2     0.000000   2.715547   2.715547
                    a_3    -2.715547   2.715547   0.000000
 
                   Unit Cell Volume:      40.04995  (Ang^3)
 
                        Reciprocal-Space Vectors (Ang^-1)
                    b_1    -1.156891  -1.156891   1.156891
                    b_2     1.156891   1.156891   1.156891
                    b_3    -1.156891   1.156891  -1.156891
  
 *----------------------------------------------------------------------------*
 |   Site       Fractional Coordinate          Cartesian Coordinate (Ang)     |
 +----------------------------------------------------------------------------+
 | Si   1   0.12500   0.12500   0.12500   |   -0.67889   0.67889   0.67889    |
 | Si   2  -0.12500  -0.12500  -0.12500   |    0.67889  -0.67889  -0.67889    |
 *----------------------------------------------------------------------------*
                                ------------
                                K-POINT GRID
                                ------------
  
             Grid size =  3 x  3 x  3      Total points =   27
  
  
 *---------------------------------- MAIN ------------------------------------*
 |  Number of Wannier Functions               :                 8             |
 |  Number of Objective Wannier Functions     :                 8             |
 |  Number of input Bloch states              :                14             |
 |  Output verbosity (1=low, 5=high)          :                 1             |
 |  Timing Level (1=low, 5=high)              :                 1             |
 |  Optimisation (0=memory, 3=speed)          :                 3             |
 |  Length Unit                               :               Ang             |
 |  Post-processing setup (write *.nnkp)      :                 F             |
 |  Using Gamma-only branch of algorithms     :                 F             |
 *----------------------------------------------------------------------------*
 *------------------------------- WANNIERISE ---------------------------------*
 |  Total number of iterations                :               100             |
 |  Number of CG steps before reset           :                 5             |
 |  Trial step length for line search         :             2.000             |
 |  Convergence tolerence                     :         0.100E-11             |
 |  Convergence window                        :                 5             |
 |  Iterations between writing output         :                 1             |
 |  Iterations between backing up to disk     :               100             |
 |  Write r^2_nm to file                      :                 F             |
 |  Write xyz WF centres to file              :                 F             |
 |  Write on-site energies <0n|H|0n> to file  :                 F             |
 |  Use guiding centre to control phases      :                 F             |
 |  Use phases for initial projections        :                 F             |
 *----------------------------------------------------------------------------*
 *------------------------------- DISENTANGLE --------------------------------*
 |  Using band disentanglement                :                 T             |
 |  Total number of iterations                :               200             |
 |  Mixing ratio                              :             0.500             |
 |  Convergence tolerence                     :         1.000E-10             |
 |  Convergence window                        :                 3             |
 *----------------------------------------------------------------------------*
 *-------------------------------- PLOTTING ----------------------------------*
 |  Plotting interpolated bandstructure       :                 T             |
 |   Number of K-path sections                :                 5             |
 |   Divisions along first K-path section     :                50             |
 |   Output format                            :           gnuplot             |
 |   Output mode                              :               s-k             |
 *----------------------------------------------------------------------------*
 |   K-space path sections:                                                   |
 |    From: L       0.500  0.500  0.500     To: GAMMA   0.000  0.000  0.000   |
 |    From: GAMMA   0.000  0.000  0.000     To: X       0.500  0.500  0.000   |
 |    From: X       0.500  0.500  0.000     To: W       0.750  0.500  0.250   |
 |    From: W       0.750  0.500  0.250     To: K       0.750  0.375  0.375   |
 |    From: K       0.750  0.375  0.375     To: GAMMA   0.000  0.000  0.000   |
 *----------------------------------------------------------------------------*
 Time to read parameters        0.017 (sec)

 *---------------------------------- K-MESH ----------------------------------*
 +----------------------------------------------------------------------------+
 |                    Distance to Nearest-Neighbour Shells                    |
 |                    ------------------------------------                    |
 |          Shell             Distance (Ang^-1)          Multiplicity         |
 |          -----             -----------------          ------------         |
 |             1                   0.667932                      8            |
 |             2                   0.771261                      6            |
 |             3                   1.090728                     12            |
 |             4                   1.278991                     24            |
 |             5                   1.335863                      8            |
 |             6                   1.542522                      6            |
 |             7                   1.680924                     24            |
 |             8                   1.724592                     24            |
 |             9                   1.889196                     24            |
 |            10                   2.003795                     32            |
 |            11                   2.181455                     12            |
 |            12                   2.281420                     48            |
 |            13                   2.313783                     30            |
 |            14                   2.438941                     24            |
 |            15                   2.528748                     24            |
 |            16                   2.557983                     24            |
 |            17                   2.671726                      8            |
 |            18                   2.753952                     48            |
 |            19                   2.780821                     24            |
 |            20                   2.885794                     48            |
 |            21                   2.962084                     72            |
 |            22                   3.085043                      6            |
 |            23                   3.156521                     24            |
 |            24                   3.179990                     48            |
 |            25                   3.272183                     36            |
 |            26                   3.339658                     56            |
 |            27                   3.361848                     24            |
 |            28                   3.449183                     24            |
 |            29                   3.513260                     72            |
 |            30                   3.534361                     48            |
 |            31                   3.617534                     24            |
 |            32                   3.678680                     48            |
 |            33                   3.778391                     24            |
 |            34                   3.836974                     72            |
 |            35                   3.856304                     30            |
 |            36                   3.932674                     72            |
 +----------------------------------------------------------------------------+
 | The b-vectors are chosen automatically                                     |
 | The following shells are used:   1                                         |
 +----------------------------------------------------------------------------+
 |                        Shell   # Nearest-Neighbours                        |
 |                        -----   --------------------                        |
 |                          1               8                                 |
 +----------------------------------------------------------------------------+
 | Completeness relation is fully satisfied [Eq. (B1), PRB 56, 12847 (1997)]  |
 | Completeness relations for higher-order are fully satisfied                |
 +----------------------------------------------------------------------------+
 |                  b_k Vectors (Ang^-1) and Weights (Ang^2)                  |
 |                  ----------------------------------------                  |
 |            No.         b_k(x)      b_k(y)      b_k(z)        w_b           |
 |            ---        --------------------------------     --------        |
 |             1        -0.385630    0.385630   -0.385630     0.840557        |
 |             2         0.385630    0.385630    0.385630     0.840557        |
 |             3        -0.385630   -0.385630    0.385630     0.840557        |
 |             4        -0.385630    0.385630    0.385630     0.840557        |
 |             5         0.385630   -0.385630    0.385630     0.840557        |
 |             6        -0.385630   -0.385630   -0.385630     0.840557        |
 |             7         0.385630    0.385630   -0.385630     0.840557        |
 |             8         0.385630   -0.385630   -0.385630     0.840557        |
 +----------------------------------------------------------------------------+
 |                           b_k Directions (Ang^-1)                          |
 |                           -----------------------                          |
 |            No.           x           y           z                         |
 |            ---        --------------------------------                     |
 |             1        -0.385630    0.385630   -0.385630                     |
 |             2         0.385630    0.385630    0.385630                     |
 |             3        -0.385630   -0.385630    0.385630                     |
 |             4        -0.385630    0.385630    0.385630                     |
 +----------------------------------------------------------------------------+
  
 Time to get kmesh              0.035 (sec)
 *============================================================================*
 |                              MEMORY ESTIMATE                               |
 |         Maximum RAM allocated during each phase of the calculation         |
 *============================================================================*
 |                        Disentanglement            1.00 Mb                  |
 |                            Wannierise:            0.66 Mb                  |
 |                          plot_wannier:            0.66 Mb                  |
 *----------------------------------------------------------------------------*
  
 Starting a new Wannier90 calculation ...


 Reading overlaps from si.mmn    :  Created on 30Jul2022 at 16:17:12

 Reading projections from si.amn :  Created on 30Jul2022 at 16:17: 9

 Time to read overlaps          0.057 (sec)

 *------------------------------- DISENTANGLE --------------------------------*
 +----------------------------------------------------------------------------+
 |                              Energy  Windows                               |
 |                              ---------------                               |
 |                   Outer:   -5.92632  to   20.00000  (eV)                   |
 |                   Inner:   -5.92632  to    8.00000  (eV)                   |
 +----------------------------------------------------------------------------+
   Number of target bands to extract:    8

                   Unitarised projection of Wannier functions                  
                   ------------------------------------------                  
   A_mn = <psi_m|g_n> --> S = A.A^+ --> U = S^-1/2.A
   In dis_project... done
   Using an inner window (linner = T)
   In dis_proj_froz... done

                   Extraction of optimally-connected subspace                  
                   ------------------------------------------                  
 +---------------------------------------------------------------------+<-- DIS
 |  Iter     Omega_I(i-1)      Omega_I(i)      Delta (frac.)    Time   |<-- DIS
 +---------------------------------------------------------------------+<-- DIS
       1      10.09753499       9.82419628       2.782E-02      0.00    <-- DIS
       2       9.76711878       9.78546577      -1.875E-03      0.00    <-- DIS
       3       9.78629455       9.77697357       9.534E-04      0.00    <-- DIS
       4       9.78449001       9.77437715       1.035E-03      0.00    <-- DIS
       5       9.77967112       9.77336521       6.452E-04      0.00    <-- DIS
       6       9.77601036       9.77292424       3.158E-04      0.00    <-- DIS
       7       9.77386329       9.77272355       1.166E-04      0.00    <-- DIS
       8       9.77278194       9.77263063       1.548E-05      0.00    <-- DIS
       9       9.77231842       9.77258727      -2.751E-05      0.00    <-- DIS
      10       9.77217261       9.77256697      -4.035E-05      0.00    <-- DIS
      11       9.77217209       9.77255744      -3.943E-05      0.00    <-- DIS
      12       9.77222702       9.77255296      -3.335E-05      0.00    <-- DIS
      13       9.77229465       9.77255085      -2.622E-05      0.01    <-- DIS
      14       9.77235701       9.77254986      -1.973E-05      0.01    <-- DIS
      15       9.77240820       9.77254939      -1.445E-05      0.01    <-- DIS
      16       9.77244770       9.77254917      -1.038E-05      0.01    <-- DIS
      17       9.77247708       9.77254907      -7.367E-06      0.01    <-- DIS
      18       9.77249840       9.77254902      -5.179E-06      0.01    <-- DIS
      19       9.77251364       9.77254900      -3.618E-06      0.01    <-- DIS
      20       9.77252440       9.77254899      -2.515E-06      0.01    <-- DIS
      21       9.77253195       9.77254898      -1.743E-06      0.01    <-- DIS
      22       9.77253721       9.77254898      -1.205E-06      0.01    <-- DIS
      23       9.77254086       9.77254898      -8.310E-07      0.01    <-- DIS
      24       9.77254338       9.77254898      -5.725E-07      0.01    <-- DIS
      25       9.77254512       9.77254898      -3.941E-07      0.01    <-- DIS
      26       9.77254633       9.77254898      -2.711E-07      0.01    <-- DIS
      27       9.77254715       9.77254898      -1.863E-07      0.01    <-- DIS
      28       9.77254772       9.77254898      -1.281E-07      0.01    <-- DIS
      29       9.77254812       9.77254898      -8.797E-08      0.01    <-- DIS
      30       9.77254839       9.77254898      -6.043E-08      0.01    <-- DIS
      31       9.77254857       9.77254898      -4.150E-08      0.01    <-- DIS
      32       9.77254870       9.77254898      -2.850E-08      0.01    <-- DIS
      33       9.77254878       9.77254898      -1.957E-08      0.01    <-- DIS
      34       9.77254884       9.77254898      -1.344E-08      0.01    <-- DIS
      35       9.77254889       9.77254898      -9.224E-09      0.01    <-- DIS
      36       9.77254891       9.77254898      -6.333E-09      0.02    <-- DIS
      37       9.77254893       9.77254898      -4.348E-09      0.02    <-- DIS
      38       9.77254895       9.77254898      -2.985E-09      0.02    <-- DIS
      39       9.77254896       9.77254898      -2.049E-09      0.02    <-- DIS
      40       9.77254896       9.77254898      -1.407E-09      0.02    <-- DIS
      41       9.77254897       9.77254898      -9.659E-10      0.02    <-- DIS
      42       9.77254897       9.77254898      -6.631E-10      0.02    <-- DIS
      43       9.77254897       9.77254898      -4.552E-10      0.02    <-- DIS
      44       9.77254897       9.77254898      -3.125E-10      0.02    <-- DIS
      45       9.77254897       9.77254898      -2.145E-10      0.02    <-- DIS
      46       9.77254897       9.77254898      -1.473E-10      0.02    <-- DIS
      47       9.77254897       9.77254898      -1.011E-10      0.02    <-- DIS
      48       9.77254897       9.77254898      -6.942E-11      0.02    <-- DIS
      49       9.77254898       9.77254898      -4.766E-11      0.02    <-- DIS
      50       9.77254898       9.77254898      -3.272E-11      0.02    <-- DIS

             <<<      Delta < 1.000E-10  over  3 iterations     >>>
             <<< Disentanglement convergence criteria satisfied >>>

        Final Omega_I     9.77254898 (Ang^2)

 +----------------------------------------------------------------------------+

 Time to disentangle bands      0.028 (sec)

 Writing checkpoint file si.chk... done

 
 *------------------------------- WANNIERISE ---------------------------------*
 +--------------------------------------------------------------------+<-- CONV
 | Iter  Delta Spread     RMS Gradient      Spread (Ang^2)      Time  |<-- CONV
 +--------------------------------------------------------------------+<-- CONV
 
 ------------------------------------------------------------------------------
 Initial State
  WF centre and spread    1  (  -1.126477406451379,   1.126477406485855,   1.126477406400084 )   1.591705399657798
  WF centre and spread    2  (  -0.231296064725427,   1.126477406507004,   0.231296064874769 )   1.591705399552758
  WF centre and spread    3  (  -1.126477406524067,   0.231296064877671,   0.231296064793980 )   1.591705399637293
  WF centre and spread    4  (  -0.231296064819529,   0.231296064889047,   1.126477406355017 )   1.591705399613378
  WF centre and spread    5  (   0.452225371498703,  -0.452225371475687,  -0.452225371338460 )   1.919659939814922
  WF centre and spread    6  (   0.905548099907134,  -0.452225371435059,  -0.905548099883193 )   1.919659940199448
  WF centre and spread    7  (   0.452225371508905,  -0.905548099784552,  -0.905548099833463 )   1.919659940028890
  WF centre and spread    8  (   0.905548099878527,  -0.905548099881070,  -0.452225371483122 )   1.919659939516497
  Sum of centres and spreads (   0.000000000272868,   0.000000000183208,  -0.000000000114387 )  14.045461358020980
 
      0     0.140E+02     0.0000000000       14.0454613580       0.02  <-- CONV
        O_D=      0.1221252 O_OD=      4.1507872 O_TOT=     14.0454614 <-- SPRD
 ------------------------------------------------------------------------------
 Cycle:      1
  WF centre and spread    1  (  -1.145036422595700,   1.145036422639341,   1.145036422537451 )   1.533749677430832
  WF centre and spread    2  (  -0.212737048574544,   1.145036422662267,   0.212737048714089 )   1.533749677527151
  WF centre and spread    3  (  -1.145036422636050,   0.212737048690842,   0.212737048652273 )   1.533749677526044
  WF centre and spread    4  (  -0.212737048658526,   0.212737048790160,   1.145036422507614 )   1.533749677509209
  WF centre and spread    5  (   0.452896642060180,  -0.452896642041023,  -0.452896641865203 )   1.880920718965926
  WF centre and spread    6  (   0.904876829384191,  -0.452896641972112,  -0.904876829348052 )   1.880920719276485
  WF centre and spread    7  (   0.452896642047025,  -0.904876829193394,  -0.904876829287354 )   1.880920719132032
  WF centre and spread    8  (   0.904876829361777,  -0.904876829366102,  -0.452896642039574 )   1.880920718732135
  Sum of centres and spreads (   0.000000000388353,   0.000000000209979,  -0.000000000128756 )  13.658681586099815
 
      1    -0.387E+00     0.5635054137       13.6586815861       0.02  <-- CONV
        O_D=      0.1495916 O_OD=      3.7365410 O_TOT=     13.6586816 <-- SPRD
 Delta: O_D=  0.2746640E-01 O_OD= -0.4142462E+00 O_TOT= -0.3867798E+00 <-- DLTA
 ------------------------------------------------------------------------------
 Cycle:      2
  WF centre and spread    1  (  -1.147927454871839,   1.147927454917564,   1.147927454817069 )   1.524822771795450
  WF centre and spread    2  (  -0.209846016287789,   1.147927454944927,   0.209846016435752 )   1.524822771842929
  WF centre and spread    3  (  -1.147927454918997,   0.209846016409844,   0.209846016366530 )   1.524822771909466
  WF centre and spread    4  (  -0.209846016381297,   0.209846016512715,   1.147927454784087 )   1.524822771809736
  WF centre and spread    5  (   0.452198996008070,  -0.452198995995691,  -0.452198995817305 )   1.874911377068049
  WF centre and spread    6  (   0.905574475428435,  -0.452198995919888,  -0.905574475401232 )   1.874911377335184
  WF centre and spread    7  (   0.452198996006776,  -0.905574475242317,  -0.905574475328874 )   1.874911377246738
  WF centre and spread    8  (   0.905574475412821,  -0.905574475410216,  -0.452198995991493 )   1.874911376847783
  Sum of centres and spreads (   0.000000000396181,   0.000000000216938,  -0.000000000135468 )  13.598936595855333
 
      2    -0.597E-01     0.3468863361       13.5989365959       0.03  <-- CONV
        O_D=      0.1277800 O_OD=      3.6986076 O_TOT=     13.5989366 <-- SPRD
 Delta: O_D= -0.2181158E-01 O_OD= -0.3793341E-01 O_TOT= -0.5974499E-01 <-- DLTA
 ------------------------------------------------------------------------------
 Cycle:      3
  WF centre and spread    1  (  -1.148288640379633,   1.148288640422477,   1.148288640321598 )   1.524397448216746
  WF centre and spread    2  (  -0.209484830782442,   1.148288640450984,   0.209484830931347 )   1.524397448267551
  WF centre and spread    3  (  -1.148288640425133,   0.209484830900162,   0.209484830858778 )   1.524397448344901
  WF centre and spread    4  (  -0.209484830876970,   0.209484831011227,   1.148288640290310 )   1.524397448220088
  WF centre and spread    5  (   0.451967256656201,  -0.451967256644301,  -0.451967256462150 )   1.873663938445722
  WF centre and spread    6  (   0.905806214776833,  -0.451967256564262,  -0.905806214754256 )   1.873663938700293
  WF centre and spread    7  (   0.451967256655257,  -0.905806214591369,  -0.905806214679741 )   1.873663938632149
  WF centre and spread    8  (   0.905806214763468,  -0.905806214766362,  -0.451967256642957 )   1.873663938225800
  Sum of centres and spreads (   0.000000000387582,   0.000000000218557,  -0.000000000137070 )  13.592245547053251
 
      3    -0.669E-02     0.1153859506       13.5922455471       0.03  <-- CONV
        O_D=      0.1243323 O_OD=      3.6953642 O_TOT=     13.5922455 <-- SPRD
 Delta: O_D= -0.3447682E-02 O_OD= -0.3243367E-02 O_TOT= -0.6691049E-02 <-- DLTA
 ------------------------------------------------------------------------------
 Cycle:      4
  WF centre and spread    1  (  -1.148309016511034,   1.148309016551745,   1.148309016448902 )   1.524814711599260
  WF centre and spread    2  (  -0.209464454655250,   1.148309016580564,   0.209464454802864 )   1.524814711653368
  WF centre and spread    3  (  -1.148309016552324,   0.209464454766729,   0.209464454729716 )   1.524814711733312
  WF centre and spread    4  (  -0.209464454747535,   0.209464454886878,   1.148309016420544 )   1.524814711599680
  WF centre and spread    5  (   0.451918962566715,  -0.451918962554793,  -0.451918962365062 )   1.873084013897674
  WF centre and spread    6  (   0.905854508866824,  -0.451918962468373,  -0.905854508847776 )   1.873084014142431
  WF centre and spread    7  (   0.451918962561390,  -0.905854508676611,  -0.905854508769977 )   1.873084014091242
  WF centre and spread    8  (   0.905854508855989,  -0.905854508865717,  -0.451918962555999 )   1.873084013675379
  Sum of centres and spreads (   0.000000000384776,   0.000000000220422,  -0.000000000136789 )  13.591594902392343
 
      4    -0.651E-03     0.0345473598       13.5915949024       0.03  <-- CONV
        O_D=      0.1241191 O_OD=      3.6949269 O_TOT=     13.5915949 <-- SPRD
 Delta: O_D= -0.2132627E-03 O_OD= -0.4373819E-03 O_TOT= -0.6506447E-03 <-- DLTA
 ------------------------------------------------------------------------------
 Cycle:      5
  WF centre and spread    1  (  -1.148289510510550,   1.148289510549108,   1.148289510443341 )   1.525250037608383
  WF centre and spread    2  (  -0.209483960658733,   1.148289510579318,   0.209483960805328 )   1.525250037669722
  WF centre and spread    3  (  -1.148289510546771,   0.209483960764622,   0.209483960732295 )   1.525250037748918
  WF centre and spread    4  (  -0.209483960748530,   0.209483960894426,   1.148289510420019 )   1.525250037609389
  WF centre and spread    5  (   0.451932738775589,  -0.451932738764170,  -0.451932738563781 )   1.872626346068202
  WF centre and spread    6  (   0.905840732659681,  -0.451932738668851,  -0.905840732644889 )   1.872626346300415
  WF centre and spread    7  (   0.451932738764568,  -0.905840732461435,  -0.905840732561993 )   1.872626346270427
  WF centre and spread    8  (   0.905840732652821,  -0.905840732669801,  -0.451932738768083 )   1.872626345841418
  Sum of centres and spreads (   0.000000000388076,   0.000000000223219,  -0.000000000137761 )  13.591505535116873
 
      5    -0.894E-04     0.0114430556       13.5915055351       0.03  <-- CONV
        O_D=      0.1240782 O_OD=      3.6948783 O_TOT=     13.5915055 <-- SPRD
 Delta: O_D= -0.4085671E-04 O_OD= -0.4851057E-04 O_TOT= -0.8936728E-04 <-- DLTA
 ------------------------------------------------------------------------------
 Cycle:      6
  WF centre and spread    1  (  -1.148266455191594,   1.148266455228247,   1.148266455119863 )   1.525564251986986
  WF centre and spread    2  (  -0.209507015980181,   1.148266455259543,   0.209507016125961 )   1.525564252054433
  WF centre and spread    3  (  -1.148266455223000,   0.209507016081100,   0.209507016053135 )   1.525564252133023
  WF centre and spread    4  (  -0.209507016067261,   0.209507016219844,   1.148266455101117 )   1.525564251989078
  WF centre and spread    5  (   0.451935209336331,  -0.451935209325718,  -0.451935209113787 )   1.872307954527228
  WF centre and spread    6  (   0.905838262100943,  -0.451935209220775,  -0.905838262090583 )   1.872307954746695
  WF centre and spread    7  (   0.451935209319351,  -0.905838261894016,  -0.905838262002135 )   1.872307954736967
  WF centre and spread    8  (   0.905838262098601,  -0.905838262122607,  -0.451935209332160 )   1.872307954294512
  Sum of centres and spreads (   0.000000000393191,   0.000000000225618,  -0.000000000138590 )  13.591488826468922
 
      6    -0.167E-04     0.0051398069       13.5914888265       0.03  <-- CONV
        O_D=      0.1240748 O_OD=      3.6948651 O_TOT=     13.5914888 <-- SPRD
 Delta: O_D= -0.3458146E-05 O_OD= -0.1325050E-04 O_TOT= -0.1670865E-04 <-- DLTA
 ------------------------------------------------------------------------------
 Cycle:      7
  WF centre and spread    1  (  -1.148259679545190,   1.148259679580399,   1.148259679470259 )   1.525720509186367
  WF centre and spread    2  (  -0.209513791628457,   1.148259679612377,   0.209513791773624 )   1.525720509257395
  WF centre and spread    3  (  -1.148259679573150,   0.209513791725896,   0.209513791701026 )   1.525720509335632
  WF centre and spread    4  (  -0.209513791713500,   0.209513791870866,   1.148259679454762 )   1.525720509189444
  WF centre and spread    5  (   0.451934399647799,  -0.451934399637948,  -0.451934399415588 )   1.872150736099727
  WF centre and spread    6  (   0.905839071790886,  -0.451934399524724,  -0.905839071784449 )   1.872150736310154
  WF centre and spread    7  (   0.451934399625255,  -0.905839071576762,  -0.905839071691549 )   1.872150736315324
  WF centre and spread    8  (   0.905839071792789,  -0.905839071822873,  -0.451934399646856 )   1.872150735861978
  Sum of centres and spreads (   0.000000000396430,   0.000000000227230,  -0.000000000138770 )  13.591484981556018
 
      7    -0.384E-05     0.0024513590       13.5914849816       0.03  <-- CONV
        O_D=      0.1240641 O_OD=      3.6948719 O_TOT=     13.5914850 <-- SPRD
 Delta: O_D= -0.1063705E-04 O_OD=  0.6792142E-05 O_TOT= -0.3844913E-05 <-- DLTA
 ------------------------------------------------------------------------------
 Cycle:      8
  WF centre and spread    1  (  -1.148253181724090,   1.148253181756643,   1.148253181643415 )   1.525967038260518
  WF centre and spread    2  (  -0.209520289453017,   1.148253181789852,   0.209520289596948 )   1.525967038337067
  WF centre and spread    3  (  -1.148253181745874,   0.209520289544236,   0.209520289524876 )   1.525967038414721
  WF centre and spread    4  (  -0.209520289534441,   0.209520289700157,   1.148253181633782 )   1.525967038265065
  WF centre and spread    5  (   0.451930513122558,  -0.451930513114101,  -0.451930512871557 )   1.871903659101708
  WF centre and spread    6  (   0.905842958318859,  -0.451930512985005,  -0.905842958319875 )   1.871903659296693
  WF centre and spread    7  (   0.451930513088857,  -0.905842958091189,  -0.905842958218859 )   1.871903659328117
  WF centre and spread    8  (   0.905842958328872,  -0.905842958370712,  -0.451930513127942 )   1.871903658854733
  Sum of centres and spreads (   0.000000000401724,   0.000000000229880,  -0.000000000139212 )  13.591482789858624
 
      8    -0.219E-05     0.0016333176       13.5914827899       0.03  <-- CONV
        O_D=      0.1240516 O_OD=      3.6948822 O_TOT=     13.5914828 <-- SPRD
 Delta: O_D= -0.1252630E-04 O_OD=  0.1033460E-04 O_TOT= -0.2191697E-05 <-- DLTA
 ------------------------------------------------------------------------------
 Cycle:      9
  WF centre and spread    1  (  -1.148254058838757,   1.148254058868569,   1.148254058752459 )   1.526142742891051
  WF centre and spread    2  (  -0.209519412342025,   1.148254058902914,   0.209519412484474 )   1.526142742971342
  WF centre and spread    3  (  -1.148254058854493,   0.209519412427099,   0.209519412413139 )   1.526142743048489
  WF centre and spread    4  (  -0.209519412419913,   0.209519412593441,   1.148254058748560 )   1.526142742896487
  WF centre and spread    5  (   0.451927133781269,  -0.451927133774261,  -0.451927133508037 )   1.871727770625682
  WF centre and spread    6  (   0.905846337663177,  -0.451927133627016,  -0.905846337672681 )   1.871727770806789
  WF centre and spread    7  (   0.451927133733762,  -0.905846337420673,  -0.905846337563275 )   1.871727770863793
  WF centre and spread    8  (   0.905846337682724,  -0.905846337738081,  -0.451927133794190 )   1.871727770369239
  Sum of centres and spreads (   0.000000000405744,   0.000000000231992,  -0.000000000139551 )  13.591482054472870
 
      9    -0.735E-06     0.0009167215       13.5914820545       0.03  <-- CONV
        O_D=      0.1240477 O_OD=      3.6948854 O_TOT=     13.5914821 <-- SPRD
 Delta: O_D= -0.3871484E-05 O_OD=  0.3136098E-05 O_TOT= -0.7353857E-06 <-- DLTA
 ------------------------------------------------------------------------------
 Cycle:     10
  WF centre and spread    1  (  -1.148258337747036,   1.148258337774094,   1.148258337655361 )   1.526253335959102
  WF centre and spread    2  (  -0.209515133437502,   1.148258337809441,   0.209515133578356 )   1.526253336041460
  WF centre and spread    3  (  -1.148258337756950,   0.209515133516691,   0.209515133507888 )   1.526253336118264
  WF centre and spread    4  (  -0.209515133512021,   0.209515133692749,   1.148258337656931 )   1.526253335964889
  WF centre and spread    5  (   0.451922547139461,  -0.451922547133913,  -0.451922546839365 )   1.871617105841281
  WF centre and spread    6  (   0.905850924308466,  -0.451922546965562,  -0.905850924327748 )   1.871617106009900
  WF centre and spread    7  (   0.451922547074764,  -0.905850924049327,  -0.905850924209585 )   1.871617106092079
  WF centre and spread    8  (   0.905850924339441,  -0.905850924410514,  -0.451922547161490 )   1.871617105575163
  Sum of centres and spreads (   0.000000000408623,   0.000000000233658,  -0.000000000139652 )  13.591481767602138
 
     10    -0.287E-06     0.0005706468       13.5914817676       0.03  <-- CONV
        O_D=      0.1240470 O_OD=      3.6948858 O_TOT=     13.5914818 <-- SPRD
 Delta: O_D= -0.7097602E-06 O_OD=  0.4228895E-06 O_TOT= -0.2868707E-06 <-- DLTA
 ------------------------------------------------------------------------------
 Cycle:     11
  WF centre and spread    1  (  -1.148261648070808,   1.148261648095658,   1.148261647975022 )   1.526297958965672
  WF centre and spread    2  (  -0.209511823116734,   1.148261648131718,   0.209511823256252 )   1.526297959048491
  WF centre and spread    3  (  -1.148261648076224,   0.209511823191443,   0.209511823186588 )   1.526297959125198
  WF centre and spread    4  (  -0.209511823188704,   0.209511823374741,   1.148261647980763 )   1.526297958971342
  WF centre and spread    5  (   0.451917520881464,  -0.451917520877006,  -0.451917520553734 )   1.871572461161040
  WF centre and spread    6  (   0.905855950570038,  -0.451917520687815,  -0.905855950598780 )   1.871572461320320
  WF centre and spread    7  (   0.451917520798593,  -0.905855950295036,  -0.905855950473027 )   1.871572461423322
  WF centre and spread    8  (   0.905855950612652,  -0.905855950699095,  -0.451917520912698 )   1.871572460886702
  Sum of centres and spreads (   0.000000000410277,   0.000000000234608,  -0.000000000139616 )  13.591481680902085
 
     11    -0.867E-07     0.0003241944       13.5914816809       0.03  <-- CONV
        O_D=      0.1240486 O_OD=      3.6948841 O_TOT=     13.5914817 <-- SPRD
 Delta: O_D=  0.1546733E-05 O_OD= -0.1633433E-05 O_TOT= -0.8670007E-07 <-- DLTA
 ------------------------------------------------------------------------------
 Cycle:     12
  WF centre and spread    1  (  -1.148263114198753,   1.148263114222004,   1.148263114100073 )   1.526310789651225
  WF centre and spread    2  (  -0.209510356990964,   1.148263114258534,   0.209510357129472 )   1.526310789733824
  WF centre and spread    3  (  -1.148263114200984,   0.209510357062550,   0.209510357060477 )   1.526310789810572
  WF centre and spread    4  (  -0.209510357061184,   0.209510357250822,   1.148263114108748 )   1.526310789656620
  WF centre and spread    5  (   0.451914811925761,  -0.451914811921908,  -0.451914811571630 )   1.871559625003656
  WF centre and spread    6  (   0.905858659529247,  -0.451914811713611,  -0.905858659566421 )   1.871559625156166
  WF centre and spread    7  (   0.451914811825179,  -0.905858659240037,  -0.905858659434626 )   1.871559625275573
  WF centre and spread    8  (   0.905858659582800,  -0.905858659683233,  -0.451914811965604 )   1.871559624722742
  Sum of centres and spreads (   0.000000000411103,   0.000000000235120,  -0.000000000139511 )  13.591481659010379
 
     12    -0.219E-07     0.0001738470       13.5914816590       0.03  <-- CONV
        O_D=      0.1240493 O_OD=      3.6948834 O_TOT=     13.5914817 <-- SPRD
 Delta: O_D=  0.7204952E-06 O_OD= -0.7423869E-06 O_TOT= -0.2189170E-07 <-- DLTA
 ------------------------------------------------------------------------------
 Cycle:     13
  WF centre and spread    1  (  -1.148263195291110,   1.148263195313713,   1.148263195191278 )   1.526310710278612
  WF centre and spread    2  (  -0.209510275899486,   1.148263195350405,   0.209510276037578 )   1.526310710360961
  WF centre and spread    3  (  -1.148263195292071,   0.209510275969851,   0.209510275968882 )   1.526310710437792
  WF centre and spread    4  (  -0.209510275969047,   0.209510276160047,   1.148263195201114 )   1.526310710283822
  WF centre and spread    5  (   0.451914291147560,  -0.451914291143768,  -0.451914290778231 )   1.871559703155873
  WF centre and spread    6  (   0.905859180309565,  -0.451914290924943,  -0.905859180351209 )   1.871559703305367
  WF centre and spread    7  (   0.451914291036589,  -0.905859180012709,  -0.905859180216644 )   1.871559703432584
  WF centre and spread    8  (   0.905859180369290,  -0.905859180477347,  -0.451914291192214 )   1.871559702871823
  Sum of centres and spreads (   0.000000000411290,   0.000000000235248,  -0.000000000139446 )  13.591481654126836
 
     13    -0.488E-08     0.0000978244       13.5914816542       0.03  <-- CONV
        O_D=      0.1240493 O_OD=      3.6948833 O_TOT=     13.5914817 <-- SPRD
 Delta: O_D=  0.6085841E-07 O_OD= -0.6574195E-07 O_TOT= -0.4883534E-08 <-- DLTA
 ------------------------------------------------------------------------------
 Cycle:     14
  WF centre and spread    1  (  -1.148263280936197,   1.148263280957652,   1.148263280834312 )   1.526310692242689
  WF centre and spread    2  (  -0.209510190255951,   1.148263280994625,   0.209510190393314 )   1.526310692324613
  WF centre and spread    3  (  -1.148263280934896,   0.209510190324158,   0.209510190325151 )   1.526310692401625
  WF centre and spread    4  (  -0.209510190324357,   0.209510190517775,   1.148263280846225 )   1.526310692247578
  WF centre and spread    5  (   0.451913538897995,  -0.451913538894166,  -0.451913538498901 )   1.871559720778053
  WF centre and spread    6  (   0.905859932563352,  -0.451913538654961,  -0.905859932613536 )   1.871559720921898
  WF centre and spread    7  (   0.451913538766597,  -0.905859932251765,  -0.905859932473899 )   1.871559721063769
  WF centre and spread    8  (   0.905859932635087,  -0.905859932757836,  -0.451913538951994 )   1.871559720488106
  Sum of centres and spreads (   0.000000000411629,   0.000000000235482,  -0.000000000139328 )  13.591481652468334
 
     14    -0.166E-08     0.0000460822       13.5914816525       0.03  <-- CONV
        O_D=      0.1240494 O_OD=      3.6948833 O_TOT=     13.5914817 <-- SPRD
 Delta: O_D=  0.6858147E-07 O_OD= -0.7023998E-07 O_TOT= -0.1658508E-08 <-- DLTA
 ------------------------------------------------------------------------------
 Cycle:     15
  WF centre and spread    1  (  -1.148263324702698,   1.148263324722925,   1.148263324598590 )   1.526311051796426
  WF centre and spread    2  (  -0.209510146491106,   1.148263324760180,   0.209510146627700 )   1.526311051877910
  WF centre and spread    3  (  -1.148263324698953,   0.209510146557005,   0.209510146560113 )   1.526311051955191
  WF centre and spread    4  (  -0.209510146558299,   0.209510146754303,   1.148263324612762 )   1.526311051800954
  WF centre and spread    5  (   0.451912961750666,  -0.451912961746451,  -0.451912961313607 )   1.871559361083719
  WF centre and spread    6  (   0.905860509716228,  -0.451912961481757,  -0.905860509776856 )   1.871559361220862
  WF centre and spread    7  (   0.451912961593025,  -0.905860509386381,  -0.905860509631502 )   1.871559361380141
  WF centre and spread    8  (   0.905860509803126,  -0.905860509944110,  -0.451912961816399 )   1.871559360786774
  Sum of centres and spreads (   0.000000000411989,   0.000000000235715,  -0.000000000139198 )  13.591481651901978
 
     15    -0.566E-09     0.0000265959       13.5914816519       0.04  <-- CONV
        O_D=      0.1240495 O_OD=      3.6948832 O_TOT=     13.5914817 <-- SPRD
 Delta: O_D=  0.8928327E-07 O_OD= -0.8984963E-07 O_TOT= -0.5663612E-09 <-- DLTA
 ------------------------------------------------------------------------------
 Cycle:     16
  WF centre and spread    1  (  -1.148263343976560,   1.148263343995808,   1.148263343870640 )   1.526311629255575
  WF centre and spread    2  (  -0.209510127218564,   1.148263344033261,   0.209510127354558 )   1.526311629336725
  WF centre and spread    3  (  -1.148263343970828,   0.209510127282619,   0.209510127287439 )   1.526311629414306
  WF centre and spread    4  (  -0.209510127284814,   0.209510127482891,   1.148263343886666 )   1.526311629259804
  WF centre and spread    5  (   0.451912664199779,  -0.451912664194782,  -0.451912663724631 )   1.871558783582804
  WF centre and spread    6  (   0.905860807272870,  -0.451912663905105,  -0.905860807343454 )   1.871558783713805
  WF centre and spread    7  (   0.451912664015596,  -0.905860806925306,  -0.905860807193231 )   1.871558783889069
  WF centre and spread    8  (   0.905860807374795,  -0.905860807533490,  -0.451912664277076 )   1.871558783279420
  Sum of centres and spreads (   0.000000000412275,   0.000000000235896,  -0.000000000139089 )  13.591481651731506
 
     16    -0.170E-09     0.0000156679       13.5914816518       0.04  <-- CONV
        O_D=      0.1240495 O_OD=      3.6948832 O_TOT=     13.5914817 <-- SPRD
 Delta: O_D=  0.1485538E-07 O_OD= -0.1502583E-07 O_TOT= -0.1704539E-09 <-- DLTA
 ------------------------------------------------------------------------------
 Cycle:     17
  WF centre and spread    1  (  -1.148263354601005,   1.148263354619447,   1.148263354493546 )   1.526312242884353
  WF centre and spread    2  (  -0.209510116595202,   1.148263354657033,   0.209510116730719 )   1.526312242965231
  WF centre and spread    3  (  -1.148263354593594,   0.209510116657735,   0.209510116663995 )   1.526312243043151
  WF centre and spread    4  (  -0.209510116660704,   0.209510116860503,   1.148263354511164 )   1.526312242888310
  WF centre and spread    5  (   0.451912570424625,  -0.451912570418371,  -0.451912569908723 )   1.871558169943571
  WF centre and spread    6  (   0.905860901054386,  -0.451912570102590,  -0.905860901135062 )   1.871558170068604
  WF centre and spread    7  (   0.451912570211813,  -0.905860900688510,  -0.905860900980561 )   1.871558170259431
  WF centre and spread    8  (   0.905860901172194,  -0.905860901349210,  -0.451912570514071 )   1.871558169633910
  Sum of centres and spreads (   0.000000000412513,   0.000000000236037,  -0.000000000138993 )  13.591481651686557
 
     17    -0.450E-10     0.0000079211       13.5914816517       0.04  <-- CONV
        O_D=      0.1240495 O_OD=      3.6948832 O_TOT=     13.5914817 <-- SPRD
 Delta: O_D= -0.2154925E-07 O_OD=  0.2150429E-07 O_TOT= -0.4496137E-10 <-- DLTA
 ------------------------------------------------------------------------------
 Cycle:     18
  WF centre and spread    1  (  -1.148263355682277,   1.148263355700054,   1.148263355573499 )   1.526312739787055
  WF centre and spread    2  (  -0.209510115514824,   1.148263355737719,   0.209510115649963 )   1.526312739867700
  WF centre and spread    3  (  -1.148263355673435,   0.209510115576091,   0.209510115583572 )   1.526312739945995
  WF centre and spread    4  (  -0.209510115579731,   0.209510115780976,   1.148263355592500 )   1.526312739790768
  WF centre and spread    5  (   0.451912536008027,  -0.451912536000053,  -0.451912535448889 )   1.871557673038568
  WF centre and spread    6  (   0.905860935477923,  -0.451912535657150,  -0.905860935568798 )   1.871557673157801
  WF centre and spread    7  (   0.451912535764634,  -0.905860935093205,  -0.905860935410599 )   1.871557673363757
  WF centre and spread    8  (   0.905860935612402,  -0.905860935808280,  -0.451912536110156 )   1.871557672722795
  Sum of centres and spreads (   0.000000000412719,   0.000000000236153,  -0.000000000138908 )  13.591481651674437
 
     18    -0.121E-10     0.0000040470       13.5914816517       0.04  <-- CONV
        O_D=      0.1240495 O_OD=      3.6948832 O_TOT=     13.5914817 <-- SPRD
 Delta: O_D= -0.6475383E-08 O_OD=  0.6463276E-08 O_TOT= -0.1210587E-10 <-- DLTA
 ------------------------------------------------------------------------------
 Cycle:     19
  WF centre and spread    1  (  -1.148263357073190,   1.148263357090697,   1.148263356963839 )   1.526312900443928
  WF centre and spread    2  (  -0.209510114124275,   1.148263357128372,   0.209510114259272 )   1.526312900524468
  WF centre and spread    3  (  -1.148263357063733,   0.209510114185019,   0.209510114193021 )   1.526312900602972
  WF centre and spread    4  (  -0.209510114188955,   0.209510114390807,   1.148263356983454 )   1.526312900447525
  WF centre and spread    5  (   0.451912535200983,  -0.451912535191789,  -0.451912534617434 )   1.871557512381113
  WF centre and spread    6  (   0.905860936289008,  -0.451912534833940,  -0.905860936385312 )   1.871557512497408
  WF centre and spread    7  (   0.451912534940190,  -0.905860935894025,  -0.905860936225568 )   1.871557512711036
  WF centre and spread    8  (   0.905860936432783,  -0.905860936638940,  -0.451912535310141 )   1.871557512062234
  Sum of centres and spreads (   0.000000000412809,   0.000000000236201,  -0.000000000138869 )  13.591481651670684
 
     19    -0.374E-11     0.0000022636       13.5914816517       0.04  <-- CONV
        O_D=      0.1240495 O_OD=      3.6948832 O_TOT=     13.5914817 <-- SPRD
 Delta: O_D= -0.5513695E-08 O_OD=  0.5509957E-08 O_TOT= -0.3739231E-11 <-- DLTA
 ------------------------------------------------------------------------------
 Cycle:     20
  WF centre and spread    1  (  -1.148263361674555,   1.148263361691375,   1.148263361563721 )   1.526313280308992
  WF centre and spread    2  (  -0.209510109523837,   1.148263361729059,   0.209510109658482 )   1.526313280389251
  WF centre and spread    3  (  -1.148263361663512,   0.209510109583246,   0.209510109592586 )   1.526313280468329
  WF centre and spread    4  (  -0.209510109587952,   0.209510109791359,   1.148263361584933 )   1.526313280312276
  WF centre and spread    5  (   0.451912531060100,  -0.451912531047392,  -0.451912530409643 )   1.871557132516082
  WF centre and spread    6  (   0.905860940441050,  -0.451912530648829,  -0.905860940552008 )   1.871557132624561
  WF centre and spread    7  (   0.451912530751523,  -0.905860940018196,  -0.905860940388407 )   1.871557132858617
  WF centre and spread    8  (   0.905860940610227,  -0.905860940844296,  -0.451912531188431 )   1.871557132188933
  Sum of centres and spreads (   0.000000000413045,   0.000000000236325,  -0.000000000138767 )  13.591481651667042
 
     20    -0.363E-11     0.0000014889       13.5914816517       0.04  <-- CONV
        O_D=      0.1240495 O_OD=      3.6948832 O_TOT=     13.5914817 <-- SPRD
 Delta: O_D= -0.9419379E-08 O_OD=  0.9415752E-08 O_TOT= -0.3625544E-11 <-- DLTA
 ------------------------------------------------------------------------------
 Cycle:     21
  WF centre and spread    1  (  -1.148263364275788,   1.148263364292339,   1.148263364164346 )   1.526313405571212
  WF centre and spread    2  (  -0.209510106922968,   1.148263364330010,   0.209510107057483 )   1.526313405651348
  WF centre and spread    3  (  -1.148263364264100,   0.209510106981846,   0.209510106991729 )   1.526313405730686
  WF centre and spread    4  (  -0.209510106986872,   0.209510107190904,   1.148263364186223 )   1.526313405574357
  WF centre and spread    5  (   0.451912528750608,  -0.451912528736092,  -0.451912528068898 )   1.871557007254061
  WF centre and spread    6  (   0.905860942755839,  -0.451912528318756,  -0.905860942873421 )   1.871557007359104
  WF centre and spread    7  (   0.451912528419623,  -0.905860942320215,  -0.905860942708379 )   1.871557007602133
  WF centre and spread    8  (   0.905860942936802,  -0.905860943183660,  -0.451912528887805 )   1.871557006923273
  Sum of centres and spreads (   0.000000000413144,   0.000000000236376,  -0.000000000138722 )  13.591481651666175
 
     21    -0.886E-12     0.0000011853       13.5914816517       0.04  <-- CONV
        O_D=      0.1240495 O_OD=      3.6948832 O_TOT=     13.5914817 <-- SPRD
 Delta: O_D= -0.1623428E-08 O_OD=  0.1622541E-08 O_TOT= -0.8864021E-12 <-- DLTA
 ------------------------------------------------------------------------------
 Cycle:     22
  WF centre and spread    1  (  -1.148263364680872,   1.148263364697387,   1.148263364569346 )   1.526313419863315
  WF centre and spread    2  (  -0.209510106517933,   1.148263364735055,   0.209510106652431 )   1.526313419943434
  WF centre and spread    3  (  -1.148263364669095,   0.209510106576738,   0.209510106586697 )   1.526313420022815
  WF centre and spread    4  (  -0.209510106581810,   0.209510106785928,   1.148263364591316 )   1.526313419866442
  WF centre and spread    5  (   0.451912528386192,  -0.451912528371379,  -0.451912527699664 )   1.871556992961994
  WF centre and spread    6  (   0.905860943121080,  -0.451912527951176,  -0.905860943239660 )   1.871556993066529
  WF centre and spread    7  (   0.451912528051743,  -0.905860942683515,  -0.905860943074436 )   1.871556993310878
  WF centre and spread    8  (   0.905860943303852,  -0.905860943552655,  -0.451912528524747 )   1.871556992630668
  Sum of centres and spreads (   0.000000000413158,   0.000000000236383,  -0.000000000138716 )  13.591481651666074
 
     22    -0.117E-12     0.0000009088       13.5914816517       0.04  <-- CONV
        O_D=      0.1240495 O_OD=      3.6948832 O_TOT=     13.5914817 <-- SPRD
 Delta: O_D= -0.8041826E-10 O_OD=  0.8030199E-10 O_TOT= -0.1172396E-12 <-- DLTA
 ------------------------------------------------------------------------------
 Cycle:     23
  WF centre and spread    1  (  -1.148263368854105,   1.148263368870265,   1.148263368741731 )   1.526313547878669
  WF centre and spread    2  (  -0.209510102345180,   1.148263368907888,   0.209510102479523 )   1.526313547958606
  WF centre and spread    3  (  -1.148263368841437,   0.209510102403276,   0.209510102413979 )   1.526313548038394
  WF centre and spread    4  (  -0.209510102408799,   0.209510102613765,   1.148263368764643 )   1.526313547881593
  WF centre and spread    5  (   0.451912524583381,  -0.451912524565404,  -0.451912523846800 )   1.871556864947063
  WF centre and spread    6  (   0.905860946932506,  -0.451912524115529,  -0.905860947061343 )   1.871556865046451
  WF centre and spread    7  (   0.451912524212901,  -0.905860946474893,  -0.905860946894394 )   1.871556865304258
  WF centre and spread    8  (   0.905860947134032,  -0.905860947402915,  -0.451912524735993 )   1.871556864610287
  Sum of centres and spreads (   0.000000000413300,   0.000000000236453,  -0.000000000138653 )  13.591481651665326
 
     23    -0.766E-12     0.0000008565       13.5914816517       0.04  <-- CONV
        O_D=      0.1240495 O_OD=      3.6948832 O_TOT=     13.5914817 <-- SPRD
 Delta: O_D= -0.2266302E-09 O_OD=  0.2258638E-09 O_TOT= -0.7656098E-12 <-- DLTA
 ------------------------------------------------------------------------------
 Cycle:     24
  WF centre and spread    1  (  -1.148263369187909,   1.148263369204039,   1.148263369075458 )   1.526313556889687
  WF centre and spread    2  (  -0.209510102011418,   1.148263369241656,   0.209510102145749 )   1.526313556969604
  WF centre and spread    3  (  -1.148263369175160,   0.209510102069451,   0.209510102080221 )   1.526313557049435
  WF centre and spread    4  (  -0.209510102075016,   0.209510102280057,   1.148263369098457 )   1.526313556892592
  WF centre and spread    5  (   0.451912524219161,  -0.451912524200848,  -0.451912523477583 )   1.871556855936095
  WF centre and spread    6  (   0.905860947297597,  -0.451912523748040,  -0.905860947427432 )   1.871556856034994
  WF centre and spread    7  (   0.451912523845074,  -0.905860946838011,  -0.905860947260352 )   1.871556856294079
  WF centre and spread    8  (   0.905860947500985,  -0.905860947771843,  -0.451912524373165 )   1.871556855598802
  Sum of centres and spreads (   0.000000000413313,   0.000000000236460,  -0.000000000138648 )  13.591481651665287
 
     24    -0.409E-13     0.0000005097       13.5914816517       0.04  <-- CONV
        O_D=      0.1240495 O_OD=      3.6948832 O_TOT=     13.5914817 <-- SPRD
 Delta: O_D= -0.2025895E-10 O_OD=  0.2021761E-10 O_TOT= -0.4085621E-13 <-- DLTA
 ------------------------------------------------------------------------------
 Cycle:     25
  WF centre and spread    1  (  -1.148263369317822,   1.148263369333939,   1.148263369205336 )   1.526313559720452
  WF centre and spread    2  (  -0.209510101881523,   1.148263369371552,   0.209510102015849 )   1.526313559800363
  WF centre and spread    3  (  -1.148263369305037,   0.209510101939528,   0.209510101950328 )   1.526313559880213
  WF centre and spread    4  (  -0.209510101945112,   0.209510102150188,   1.148263369228376 )   1.526313559723347
  WF centre and spread    5  (   0.451912524035107,  -0.451912524016607,  -0.451912523290890 )   1.871556853105353
  WF centre and spread    6  (   0.905860947482115,  -0.451912523562265,  -0.905860947612464 )   1.871556853204008
  WF centre and spread    7  (   0.451912523659109,  -0.905860947021503,  -0.905860947445338 )   1.871556853463732
  WF centre and spread    8  (   0.905860947686483,  -0.905860947958369,  -0.451912524189841 )   1.871556852767801
  Sum of centres and spreads (   0.000000000413319,   0.000000000236463,  -0.000000000138645 )  13.591481651665269
 
     25    -0.178E-13     0.0000004947       13.5914816517       0.04  <-- CONV
        O_D=      0.1240495 O_OD=      3.6948832 O_TOT=     13.5914817 <-- SPRD
 Delta: O_D= -0.1010314E-10 O_OD=  0.1008438E-10 O_TOT= -0.1776357E-13 <-- DLTA
 ------------------------------------------------------------------------------

             <<<     Delta < 1.000E-12  over  5 iterations     >>>
             <<< Wannierisation convergence criteria satisfied >>>

 Final State
  WF centre and spread    1  (  -1.148263369317822,   1.148263369333939,   1.148263369205336 )   1.526313559720452
  WF centre and spread    2  (  -0.209510101881523,   1.148263369371552,   0.209510102015849 )   1.526313559800363
  WF centre and spread    3  (  -1.148263369305037,   0.209510101939528,   0.209510101950328 )   1.526313559880213
  WF centre and spread    4  (  -0.209510101945112,   0.209510102150188,   1.148263369228376 )   1.526313559723347
  WF centre and spread    5  (   0.451912524035107,  -0.451912524016607,  -0.451912523290890 )   1.871556853105353
  WF centre and spread    6  (   0.905860947482115,  -0.451912523562265,  -0.905860947612464 )   1.871556853204008
  WF centre and spread    7  (   0.451912523659109,  -0.905860947021503,  -0.905860947445338 )   1.871556853463732
  WF centre and spread    8  (   0.905860947686483,  -0.905860947958369,  -0.451912524189841 )   1.871556852767801
  Sum of centres and spreads (   0.000000000413319,   0.000000000236463,  -0.000000000138645 )  13.591481651665269
 
         Spreads (Ang^2)       Omega I      =     9.772548976
        ================       Omega D      =     0.124049465
                               Omega OD     =     3.694883211
    Final Spread (Ang^2)       Omega Total  =    13.591481652
 ------------------------------------------------------------------------------
 Time for wannierise            0.019 (sec)

 Writing checkpoint file si.chk... done

 *---------------------------------------------------------------------------*
 |                               PLOTTING                                    |
 *---------------------------------------------------------------------------*
 
 
 Calculating interpolated band-structure
 
 Time to calculate interpolated band structure       0.097 (sec)
 
 Time for plotting              0.103 (sec)
 Total Execution Time           0.260 (sec)

 *===========================================================================*
 |                             TIMING INFORMATION                            |
 *===========================================================================*
 |    Tag                                                Ncalls      Time (s)|
 |---------------------------------------------------------------------------|
 |kmesh: get                                        :         1         0.035|
 |overlap: allocate                                 :         1         0.000|
 |overlap: read                                     :         1         0.056|
 |dis: main                                         :         1         0.028|
 |wann: main                                        :         1         0.019|
 |plot: main                                        :         1         0.103|
 *---------------------------------------------------------------------------*
 
 All done: wannier90 exiting
